<?xml version="1.0" encoding="UTF-8" ?>
<psml version="1.1" energy_unit="hartree" length_unit="bohr"
 uuid="7eaed560-53a0-11e8-55cc-b456fe9f3d63"
 xmlns="http://esl.cecam.org/PSML/ns/1.1">
<provenance creator="ONCVPSP-3.3.0+psml-3.3.0-73 (fully-relativistic)"
 date="2018-05-09">
<annotation action="semilocal-pseudopotential-generation"
 action-cont="projectors-generation" />
<input-file name="oncvpsp-input">
<![CDATA[# atsym z nc nv iexc psfile
Ar 18 3 2 -116133 upf
# n l f
1 0 2.0
2 0 2.0
2 1 6.0
3 0 2.0
3 1 6.0
# lmax
2
# l rc ep ncon nbas qcut
0 1.55 0.0 4 8 8.2
1 1.55 0.0 4 8 8.2
2 1.55 0.1 4 8 8.2
# lloc lpopt rc5 dvloc0
4 5 1.5 0.0
# l nproj debl
0 2 1.5
1 2 1.5
2 2 1.0
# icmod fcfact
3 7 1.25
# epsh1 epsh2 depsh
-12.0 12.0 0.02
# rlmax drl
4.0 0.01
 0
]]>
</input-file>
</provenance>
<pseudo-atom-spec atomic-label="Ar" atomic-number="18" z-pseudo="8"
 flavor="Hamann&apos;s oncvpsp" relativity="dirac" spin-dft="no"
 core-corrections="yes">
<annotation pseudo-energy="-21.1343222600" />
<exchange-correlation>
<annotation oncvpsp-xc-code="-116133" oncvpsp-xc-type="libxc-interface" />
<libxc-info number-of-functionals="2">
<functional name="Perdew, Burke &amp; Ernzerhof SOL (GGA)" type="exchange"
 id="116" />
<functional name="Perdew, Burke &amp; Ernzerhof SOL (GGA)" type="correlation"
 id="133" />
</libxc-info>
</exchange-correlation>
<valence-configuration total-valence-charge="8">
<shell n="3" l="s" occupation="2" />
<shell n="3" l="p" occupation="6" />
</valence-configuration>
</pseudo-atom-spec>
<grid npts="457">
<annotation type="sampled from oncvpsp log grid"
 recipe="r(i:1..N) = r1*exp(a*(i-1)) + r=0; resampled"
 recipe-cont="r1: scale; a: step" scale="0.277777777778E-04"
 step="0.119285708653E-01" delta="0.500000000000E-02" rmax="44.1337637881" />
<grid-data>
  0.000000000000E+00  5.039656670363E-03  1.006631870100E-02  1.510108323112E-02
  2.010668162892E-02  2.522145511185E-02  3.052518740768E-02  3.564552384771E-02
  4.113117834404E-02  4.634216045545E-02  5.159420074619E-02  5.676034011613E-02
  6.244376622769E-02  6.788169478566E-02  7.291816847781E-02  7.832832269358E-02
  8.413988261178E-02  8.931089968118E-02  9.479971393192E-02  1.006258563474E-01
  1.068100582341E-01  1.120299654056E-01  1.175049743093E-01  1.232475520049E-01
  1.292707748288E-01  1.355883581702E-01  1.422146877022E-01  1.473960989515E-01
  1.527662883290E-01  1.583321337255E-01  1.641007636193E-01  1.700795662056E-01
  1.762761988591E-01  1.826985979412E-01  1.893549889646E-01  1.962538971280E-01
  2.034041582349E-01  2.108149300101E-01  2.159048456802E-01  2.211176522743E-01
  2.264563168709E-01  2.319238781854E-01  2.375234483003E-01  2.432582144361E-01
  2.491314407654E-01  2.551464702712E-01  2.613067266495E-01  2.676157162577E-01
  2.740770301110E-01  2.806943459260E-01  2.874714302141E-01  2.944121404252E-01
  3.015204271436E-01  3.088003363365E-01  3.162560116570E-01  3.238916968025E-01
  3.317117379301E-01  3.397205861307E-01  3.479227999622E-01  3.563230480445E-01
  3.649261117165E-01  3.737368877578E-01  3.827603911758E-01  3.920017580603E-01
  4.014662485069E-01  4.111592496109E-01  4.210862785335E-01  4.261393138759E-01
  4.312529856424E-01  4.364280214701E-01  4.416651577278E-01  4.469651396205E-01
  4.523287212960E-01  4.577566659515E-01  4.632497459429E-01  4.688087428942E-01
  4.744344478090E-01  4.801276611827E-01  4.858891931169E-01  4.917198634343E-01
  4.976205017955E-01  5.035919478170E-01  5.096350511908E-01  5.157506718051E-01
  5.219396798668E-01  5.282029560252E-01  5.345413914975E-01  5.409558881955E-01
  5.474473588538E-01  5.540167271600E-01  5.606649278860E-01  5.673929070206E-01
  5.742016219048E-01  5.810920413677E-01  5.880651458641E-01  5.951219276145E-01
  6.022633907459E-01  6.094905514348E-01  6.168044380520E-01  6.242060913086E-01
  6.316965644044E-01  6.392769231772E-01  6.469482462553E-01  6.547116252104E-01
  6.625681647129E-01  6.705189826895E-01  6.785652104817E-01  6.867079930075E-01
  6.949484889236E-01  7.032878707907E-01  7.117273252402E-01  7.202680531431E-01
  7.289112697808E-01  7.376582050182E-01  7.465101034784E-01  7.554682247201E-01
  7.645338434168E-01  7.737082495378E-01  7.829927485322E-01  7.923886615146E-01
  8.018973254528E-01  8.115200933582E-01  8.212583344785E-01  8.311134344923E-01
  8.410867957062E-01  8.511798372546E-01  8.613939953017E-01  8.717307232453E-01
  8.821914919243E-01  8.927777898273E-01  9.034911233053E-01  9.143330167849E-01
  9.253050129864E-01  9.364086731422E-01  9.476455772199E-01  9.590173241465E-01
  9.705255320363E-01  9.821718384207E-01  9.939579004818E-01  1.005885395288E+00
  1.017956020031E+00  1.030171492271E+00  1.042533550179E+00  1.055043952781E+00
  1.067704480214E+00  1.080516933977E+00  1.093483137184E+00  1.106604934831E+00
  1.119884194049E+00  1.133322804377E+00  1.146922678030E+00  1.160685750166E+00
  1.174613979168E+00  1.188709346918E+00  1.202973859081E+00  1.217409545390E+00
  1.232018459935E+00  1.246802681454E+00  1.261764313631E+00  1.276905485395E+00
  1.292228351220E+00  1.307735091434E+00  1.323427912532E+00  1.339309047482E+00
  1.355380756052E+00  1.371645325124E+00  1.388105069026E+00  1.404762329854E+00
  1.421619477812E+00  1.438678911546E+00  1.455943058485E+00  1.473414375187E+00
  1.491095347689E+00  1.508988491861E+00  1.527096353763E+00  1.545421510009E+00
  1.563966568129E+00  1.582734166946E+00  1.601726976950E+00  1.620947700673E+00
  1.640399073081E+00  1.660083861958E+00  1.680004868302E+00  1.700164926721E+00
  1.720566905842E+00  1.741213708712E+00  1.762108273216E+00  1.783253572495E+00
  1.804652615365E+00  1.826308446749E+00  1.848224148110E+00  1.870402837888E+00
  1.892847671942E+00  1.915561844006E+00  1.938548586134E+00  1.961811169167E+00
  1.985352903197E+00  2.009177138036E+00  2.033287263692E+00  2.057686710856E+00
  2.082378951387E+00  2.107367498803E+00  2.132655908789E+00  2.158247779694E+00
  2.184146753051E+00  2.210356514087E+00  2.236880792256E+00  2.263723361763E+00
  2.290888042105E+00  2.318378698610E+00  2.346199242993E+00  2.374353633909E+00
  2.402845877516E+00  2.431680028046E+00  2.460860188383E+00  2.490390510643E+00
  2.520275196771E+00  2.550518499132E+00  2.581124721122E+00  2.612098217775E+00
  2.643443396389E+00  2.675164717145E+00  2.707266693751E+00  2.739753894076E+00
  2.772630940805E+00  2.805902512095E+00  2.839573342240E+00  2.873648222347E+00
  2.908132001015E+00  2.943029585027E+00  2.978345940047E+00  3.014086091328E+00
  3.050255124424E+00  3.086858185917E+00  3.123900484148E+00  3.161387289958E+00
  3.199323937437E+00  3.237715824687E+00  3.276568414583E+00  3.315887235558E+00
  3.355677882384E+00  3.395946016973E+00  3.436697369177E+00  3.477937737607E+00
  3.519672990458E+00  3.561909066344E+00  3.604651975140E+00  3.647907798841E+00
  3.691682692428E+00  3.735982884737E+00  3.780814679353E+00  3.826184455506E+00
  3.872098668972E+00  3.918563852999E+00  3.965586619235E+00  4.013173658666E+00
  4.061331742570E+00  4.110067723481E+00  4.159388536163E+00  4.209301198597E+00
  4.259812812980E+00  4.310930566736E+00  4.362661733537E+00  4.415013674339E+00
  4.467993838431E+00  4.521609764492E+00  4.575869081666E+00  4.630779510646E+00
  4.686348864774E+00  4.742585051151E+00  4.799496071765E+00  4.857090024626E+00
  4.915375104922E+00  4.974359606181E+00  5.034051921455E+00  5.094460544512E+00
  5.155594071047E+00  5.217461199899E+00  5.280070734298E+00  5.343431583109E+00
  5.407552762107E+00  5.472443395252E+00  5.538112715995E+00  5.604570068587E+00
  5.671824909410E+00  5.739886808323E+00  5.808765450023E+00  5.878470635423E+00
  5.949012283048E+00  6.020400430445E+00  6.092645235610E+00  6.165756978437E+00
  6.239746062179E+00  6.314623014925E+00  6.390398491104E+00  6.467083272997E+00
  6.544688272273E+00  6.623224531540E+00  6.702703225919E+00  6.783135664630E+00
  6.864533292606E+00  6.946907692117E+00  7.030270584422E+00  7.114633831435E+00
  7.200009437412E+00  7.286409550661E+00  7.373846465269E+00  7.462332622853E+00
  7.551880614327E+00  7.642503181699E+00  7.734213219879E+00  7.827023778518E+00
  7.920948063860E+00  8.015999440626E+00  8.112191433914E+00  8.209537731121E+00
  8.308052183894E+00  8.407748810101E+00  8.508641795822E+00  8.610745497372E+00
  8.714074443340E+00  8.818643336661E+00  8.924467056700E+00  9.031560661381E+00
  9.139939389317E+00  9.249618661989E+00  9.360614085933E+00  9.472941454964E+00
  9.586616752424E+00  9.701656153453E+00  9.818076027294E+00  9.935892939622E+00
  1.005512365490E+01  1.017578513876E+01  1.029789456042E+01  1.042146929515E+01
  1.054652692669E+01  1.067308524981E+01  1.080116227281E+01  1.093077622008E+01
  1.106194553472E+01  1.119468888114E+01  1.132902514771E+01  1.146497344948E+01
  1.160255313088E+01  1.174178376845E+01  1.188268517367E+01  1.202527739575E+01
  1.216958072450E+01  1.231561569320E+01  1.246340308151E+01  1.261296391849E+01
  1.276431948551E+01  1.291749131934E+01  1.307250121517E+01  1.322937122976E+01
  1.338812368451E+01  1.354878116873E+01  1.371136654275E+01  1.387590294126E+01
  1.404241377656E+01  1.421092274188E+01  1.438145381478E+01  1.455403126056E+01
  1.472867963568E+01  1.490542379131E+01  1.508428887681E+01  1.526530034333E+01
  1.544848394745E+01  1.563386575482E+01  1.582147214388E+01  1.601132980960E+01
  1.620346576732E+01  1.639790735653E+01  1.659468224481E+01  1.679381843174E+01
  1.699534425292E+01  1.719928838396E+01  1.740567984457E+01  1.761454800270E+01
  1.782592257873E+01  1.803983364968E+01  1.825631165347E+01  1.847538739332E+01
  1.869709204204E+01  1.892145714654E+01  1.914851463230E+01  1.937829680789E+01
  1.961083636958E+01  1.984616640602E+01  2.008432040289E+01  2.032533224772E+01
  2.056923623470E+01  2.081606706951E+01  2.106585987435E+01  2.131865019284E+01
  2.157447399515E+01  2.183336768309E+01  2.209536809529E+01  2.236051251243E+01
  2.262883866258E+01  2.290038472654E+01  2.317518934325E+01  2.345329161537E+01
  2.373473111476E+01  2.401954788813E+01  2.430778246279E+01  2.459947585235E+01
  2.489466956257E+01  2.519340559732E+01  2.549572646449E+01  2.580167518207E+01
  2.611129528425E+01  2.642463082766E+01  2.674172639759E+01  2.706262711436E+01
  2.738737863974E+01  2.771602718341E+01  2.804861950962E+01  2.838520294373E+01
  2.872582537906E+01  2.907053528360E+01  2.941938170701E+01  2.977241428749E+01
  3.012968325894E+01  3.049123945805E+01  3.085713433155E+01  3.122741994352E+01
  3.160214898285E+01  3.198137477064E+01  3.236515126789E+01  3.275353308310E+01
  3.314657548010E+01  3.354433438586E+01  3.394686639849E+01  3.435422879527E+01
  3.476647954082E+01  3.518367729531E+01  3.560588142285E+01  3.603315199992E+01
  3.646554982392E+01  3.690313642181E+01  3.734597405887E+01  3.779412574758E+01
  3.824765525655E+01  3.870662711963E+01  3.917110664506E+01  3.964115992480E+01
  4.011685384390E+01  4.059825609003E+01  4.108543516311E+01  4.157846038507E+01
  4.207740190969E+01  4.258233073260E+01  4.309331870139E+01  4.361043852581E+01
  4.413376378812E+01
</grid-data>
</grid>
<valence-charge total-charge="8" is-unscreening-charge="yes"
 rescaled-to-z-pseudo="no">
<radfunc>
<data npts="457">
  4.518712381140E-02  4.546609196763E-02  4.630016509989E-02  4.769216494246E-02
  4.962851834504E-02  5.217638311445E-02  5.542651228610E-02  5.915219490833E-02
  6.378524806348E-02  6.880169843304E-02  7.446517641280E-02  8.063189522774E-02
  8.809987822725E-02  9.591710222336E-02  1.037443333495E-01  1.127825062452E-01
  1.232199264759E-01  1.331428169093E-01  1.443320734290E-01  1.569503246872E-01
  1.711812698268E-01  1.838657373373E-01  1.978331105190E-01  2.132140125290E-01
  2.301524318379E-01  2.488070670012E-01  2.693527908051E-01  2.861182768087E-01
  3.041438304742E-01  3.235244143520E-01  3.443620329986E-01  3.667662037930E-01
  3.908544437912E-01  4.167527686842E-01  4.445961984419E-01  4.745292623845E-01
  5.067064941669E-01  5.412929044042E-01  5.657753579768E-01  5.914614118572E-01
  6.184082378944E-01  6.466753131785E-01  6.763244418201E-01  7.074197637642E-01
  7.400277481299E-01  7.742171682348E-01  8.100590550998E-01  8.476266258377E-01
  8.869951828982E-01  9.282419796863E-01  9.714460475784E-01  1.016687978843E+00
  1.064049659429E+00  1.113613945029E+00  1.165464273241E+00  1.219684204096E+00
  1.276356880637E+00  1.335564400743E+00  1.397387090856E+00  1.461902671930E+00
  1.529185307583E+00  1.599304524297E+00  1.672323993556E+00  1.748300166078E+00
  1.827280748863E+00  1.909303016742E+00  1.994391951418E+00  2.038090366206E+00
  2.082558202925E+00  2.127794189483E+00  2.173795870858E+00  2.220559529974E+00
  2.268080105896E+00  2.316351109406E+00  2.365364536078E+00  2.415110776966E+00
  2.465578527076E+00  2.516754691789E+00  2.568624291458E+00  2.621170364425E+00
  2.674373868727E+00  2.728213582829E+00  2.782666005728E+00  2.837705256829E+00
  2.893302976037E+00  2.949428224556E+00  3.006047386929E+00  3.063124074892E+00
  3.120619033700E+00  3.178490051580E+00  3.236691873078E+00  3.295176117064E+00
  3.353891200254E+00  3.412782267137E+00  3.471791127243E+00  3.530856200761E+00
  3.589912473535E+00  3.648891462515E+00  3.707721192806E+00  3.766326187448E+00
  3.824627471125E+00  3.882542589005E+00  3.939985641934E+00  3.996867339202E+00
  4.053095070111E+00  4.108572995532E+00  4.163202160639E+00  4.216880629942E+00
  4.269503645679E+00  4.320963810589E+00  4.371151295943E+00  4.419954075648E+00
  4.467258187069E+00  4.512948019115E+00  4.556906627903E+00  4.599016080187E+00
  4.639157824480E+00  4.677213089595E+00  4.713063310075E+00  4.746590577696E+00
  4.777678117960E+00  4.806210790185E+00  4.832075609474E+00  4.855162288514E+00
  4.875363796846E+00  4.892576934859E+00  4.906702919460E+00  4.917647977999E+00
  4.925323946728E+00  4.929648869719E+00  4.930547593898E+00  4.927952355561E+00
  4.921803353490E+00  4.912049303598E+00  4.898647969847E+00  4.881566666067E+00
  4.860782723261E+00  4.836283916950E+00  4.808068849180E+00  4.776147279941E+00
  4.740540402929E+00  4.701281060859E+00  4.658413895866E+00  4.611995430932E+00
  4.562094078764E+00  4.508790075092E+00  4.452175333942E+00  4.392353223140E+00
  4.329438258970E+00  4.263555719703E+00  4.194841178489E+00  4.123439956923E+00
  4.049506501421E+00  3.973203685392E+00  3.894702041009E+00  3.814178925208E+00
  3.731817625322E+00  3.647806410531E+00  3.562337535987E+00  3.475606207168E+00
  3.387809512580E+00  3.299145333476E+00  3.209811239696E+00  3.120003381141E+00
  3.029915384645E+00  2.939737266260E+00  2.849654369034E+00  2.759846336425E+00
  2.670486131381E+00  2.581739110946E+00  2.493762165983E+00  2.406702935180E+00
  2.320699102063E+00  2.235877783107E+00  2.152355014371E+00  2.070235343318E+00
  1.989611531684E+00  1.910564655225E+00  1.833165503231E+00  1.757476795165E+00
  1.683553783339E+00  1.611444071713E+00  1.541188046704E+00  1.472819108765E+00
  1.406363952908E+00  1.341842857657E+00  1.279269983614E+00  1.218653679595E+00
  1.159996794170E+00  1.103296990988E+00  1.048547065801E+00  9.957352636494E-01
  9.448455945848E-01  8.958581464912E-01  8.487493936530E-01  8.034924998518E-01
  7.600576148886E-01  7.184121635461E-01  6.785211261463E-01  6.403473098026E-01
  6.038516100071E-01  5.689932617079E-01  5.357300795800E-01  5.040186871087E-01
  4.738147342208E-01  4.450731032874E-01  4.177481033960E-01  3.917936528683E-01
  3.671634500630E-01  3.438111325675E-01  3.216904249383E-01  3.007552752004E-01
  2.809599803616E-01  2.622593012391E-01  2.446085669298E-01  2.279637692861E-01
  2.122816477852E-01  1.975197652002E-01  1.836365744975E-01  1.705914773960E-01
  1.583448750330E-01  1.468582111826E-01  1.360940084737E-01  1.260158980490E-01
  1.165886431008E-01  1.077781567058E-01  9.955151436960E-02  9.187696167710E-02
  8.472391742367E-02  7.806297258817E-02  7.186588548606E-02  6.610557342347E-02
  6.075610115296E-02  5.579266641432E-02  5.119158282581E-02  4.693026037626E-02
  4.298718375392E-02  3.934188873562E-02  3.597493684906E-02  3.286788851154E-02
  3.000327484058E-02  2.736456832457E-02  2.493615253566E-02  2.270329106098E-02
  2.065209582294E-02  1.876949495326E-02  1.704320037978E-02  1.546167527835E-02
  1.401410153505E-02  1.269034735648E-02  1.148093515720E-02  1.037700984473E-02
  9.370307612652E-03  8.453125342603E-03  7.618290705399E-03  6.859133041014E-03
  6.169455086481E-03  5.543505610119E-03  4.975953000080E-03  4.461859845079E-03
  3.996658535436E-03  3.576127903364E-03  3.196370912805E-03  2.853793401174E-03
  2.545083868095E-03  2.267194299728E-03  2.017322011510E-03  1.792892487174E-03
  1.591543187684E-03  1.411108300237E-03  1.249604394722E-03  1.105216952907E-03
  9.762877341497E-04  8.613029404801E-04  7.588821434888E-04  6.677679354385E-04
  5.868162674011E-04  5.149874378954E-04  4.513376964241E-04  3.950114274214E-04
  3.452338813744E-04  3.013044212213E-04  2.625902535283E-04  2.285206153606E-04
  1.985813891744E-04  1.723101194436E-04  1.492914060750E-04  1.291526509622E-04
  1.115601352615E-04  9.621540615154E-05  8.285195295068E-05  7.123215352658E-05
  6.114447293117E-05  5.240089714510E-05  4.483458571772E-05  3.829772794710E-05
  3.265958806464E-05  2.780472567317E-05  2.363137843987E-05  2.004999476883E-05
  1.698190487453E-05  1.435811934930E-05  1.211824496579E-05  1.020950808080E-05
  8.585876610134E-06  7.207272125810E-06  6.038864186427E-06  5.050439550063E-06
  4.215839435034E-06  3.512458488178E-06  2.920799592235E-06  2.424079093469E-06
  2.007877457640E-06  1.659830766987E-06  1.369358852850E-06  1.127426218310E-06
  9.263322429357E-07  7.595274778148E-07  6.214531339319E-07  5.074011413288E-07
  4.133924108420E-07  3.360711654025E-07  2.726134246232E-07  2.206479255432E-07
  1.781879448178E-07  1.435726542240E-07  1.154167930222E-07  9.256757838251E-08
  7.406789967317E-08  5.912495481781E-08  4.708358805377E-08  3.740367911875E-08
  2.964101499762E-08  2.343114767253E-08  1.847580559953E-08  1.453148360726E-08
  1.139988625914E-08  8.919944078469E-09  6.961161002533E-09  5.418085561255E-09
  4.205728078477E-09  3.255772142034E-09  2.513451112138E-09  1.934979930148E-09
  1.485449308298E-09  1.137103848376E-09  8.679380444293E-10  6.605547321964E-10
  5.012395892593E-10  3.792129722138E-10  2.860268845055E-10  2.150803633133E-10
  1.612311989419E-10  1.204857808476E-10  8.975211004911E-11  6.664372340963E-11
  4.932452358000E-11  3.638637045859E-11  2.675282709083E-11  1.960371748471E-11
  1.431619066034E-11  1.041883249177E-11  7.556056829538E-12  5.460567269587E-12
  3.932133681949E-12  2.821292432563E-12  2.016872149299E-12  1.436481219928E-12
  1.019279996925E-12  7.205090206748E-13  5.073619348607E-13  3.558842735267E-13
  2.486519353201E-13  1.730399750238E-13  1.199366089584E-13  8.279168483752E-14
  5.691542180811E-14  3.896367058197E-14  2.656161902268E-14  1.802983455958E-14
  1.218566362226E-14  8.199813977927E-15  5.493297100322E-15  3.663641696161E-15
  2.432315193200E-15  1.607419852112E-15  1.057344463205E-15  6.922383850018E-16
  4.510454417596E-16  2.924704300398E-16  0.000000000000E+00  0.000000000000E+00
  0.000000000000E+00  0.000000000000E+00  0.000000000000E+00  0.000000000000E+00
  0.000000000000E+00  0.000000000000E+00  0.000000000000E+00  0.000000000000E+00
  0.000000000000E+00  0.000000000000E+00  0.000000000000E+00  0.000000000000E+00
  0.000000000000E+00  0.000000000000E+00  0.000000000000E+00  0.000000000000E+00
  0.000000000000E+00  0.000000000000E+00  0.000000000000E+00  0.000000000000E+00
  0.000000000000E+00  0.000000000000E+00  0.000000000000E+00  0.000000000000E+00
  0.000000000000E+00  0.000000000000E+00  0.000000000000E+00  0.000000000000E+00
  0.000000000000E+00  0.000000000000E+00  0.000000000000E+00  0.000000000000E+00
  0.000000000000E+00  0.000000000000E+00  0.000000000000E+00  0.000000000000E+00
  0.000000000000E+00  0.000000000000E+00  0.000000000000E+00  0.000000000000E+00
  0.000000000000E+00  0.000000000000E+00  0.000000000000E+00  0.000000000000E+00
  0.000000000000E+00  0.000000000000E+00  0.000000000000E+00  0.000000000000E+00
  0.000000000000E+00  0.000000000000E+00  0.000000000000E+00  0.000000000000E+00
  0.000000000000E+00  0.000000000000E+00  0.000000000000E+00  0.000000000000E+00
  0.000000000000E+00  0.000000000000E+00  0.000000000000E+00  0.000000000000E+00
  0.000000000000E+00  0.000000000000E+00  0.000000000000E+00  0.000000000000E+00
  0.000000000000E+00
</data>
</radfunc>
</valence-charge>
<pseudocore-charge matching-radius="0.746510103478"
 number-of-continuous-derivatives="4">
<annotation model-charge-form="Teter function with specified parameters" />
<radfunc>
<data npts="256">
  3.217432326850E+01  3.217135832952E+01  3.216249559883E+01  3.214771108248E+01
  3.212715877944E+01  3.210014040666E+01  3.206571524691E+01  3.202630839696E+01
  3.197738637078E+01  3.192451817227E+01  3.186495811826E+01  3.180025826032E+01
  3.172211742781E+01  3.164056896940E+01  3.155916704938E+01  3.146548150257E+01
  3.135770186930E+01  3.125563909574E+01  3.114101846956E+01  3.101234788976E+01
  3.086797220687E+01  3.073993910055E+01  3.059966041699E+01  3.044602799725E+01
  3.027784662244E+01  3.009383002674E+01  2.989259741109E+01  2.972948947806E+01
  2.955520800902E+01  2.936906130951E+01  2.917032620942E+01  2.895824848414E+01
  2.873204366345E+01  2.849089829694E+01  2.823397175237E+01  2.796039863205E+01
  2.766929190077E+01  2.735974682753E+01  2.714268716296E+01  2.691675116504E+01
  2.668166449363E+01  2.643715333733E+01  2.618294554515E+01  2.591877188434E+01
  2.564436743212E+01  2.535947310944E+01  2.506383736441E+01  2.475721801291E+01
  2.443938424326E+01  2.411011879130E+01  2.376922029131E+01  2.341650580710E+01
  2.305181354622E+01  2.267500575847E+01  2.228597181799E+01  2.188463148560E+01
  2.147093834547E+01  2.104488340655E+01  2.060649885565E+01  2.015586194475E+01
  1.969309899000E+01  1.921838945468E+01  1.873197008219E+01  1.823413903864E+01
  1.772526001729E+01  1.720576624945E+01  1.667616435841E+01  1.640775215257E+01
  1.613703798408E+01  1.586410738585E+01  1.558905109749E+01  1.531196514560E+01
  1.503295091532E+01  1.475211521253E+01  1.446957031572E+01  1.418543401658E+01
  1.389982964843E+01  1.361288610153E+01  1.332473782423E+01  1.303552480899E+01
  1.274539256225E+01  1.245449205721E+01  1.216297966826E+01  1.187101708630E+01
  1.157877121383E+01  1.128641403866E+01  1.099412248556E+01  1.070207824464E+01
  1.041046757567E+01  1.011948108747E+01  9.829313491577E+00  9.540163329436E+00
  9.252232672505E+00  8.965726794705E+00  8.680853816801E+00  8.397824322368E+00
  8.116850945188E+00  7.838147928038E+00  7.561930652993E+00  7.288415143581E+00
  7.017817539271E+00  6.750353543032E+00  6.486237842885E+00  6.225683508639E+00
  5.968901365226E+00  5.716099344328E+00  5.467481816262E+00  5.223248904366E+00
  4.983595784419E+00  4.748711971957E+00  4.518780600583E+00  4.293977694757E+00
  4.074471440783E+00  3.860421460040E+00  3.651978088796E+00  3.449281669206E+00
  3.252461856348E+00  3.061636946424E+00  2.876913231406E+00  2.698384385659E+00
  2.526130890135E+00  2.360219499903E+00  2.200702760797E+00  2.047618580947E+00
  1.900989862954E+00  1.760824202269E+00  1.627113657219E+00  1.499834595782E+00
  1.378947623934E+00  1.264397599894E+00  1.156113738150E+00  1.054009806489E+00
  9.579844186187E-01  8.679214241647E-01  7.836903969986E-01  7.051472219146E-01
  6.321347786721E-01  5.644837213554E-01  5.020133498863E-01  4.445325693568E-01
  3.918409316632E-01  3.437297527184E-01  2.999832973176E-01  2.603800225679E-01
  2.246938696575E-01  1.926955926939E-01  1.641541123725E-01  1.388378813987E-01
  1.165162478860E-01  9.696080242337E-02  7.994669416675E-02  6.525390118266E-02
  5.266844038333E-02  4.198350274696E-02  3.300050013654E-02  2.553001091715E-02
  1.939261272867E-02  1.441959219323E-02  1.045352301422E-02  7.348705835397E-03
  4.971465350872E-03  3.200302453205E-03  1.925901637415E-03  1.050996393888E-03
  4.900978682135E-04  1.690945801582E-04  2.473341285465E-05  3.994339881348E-06
  6.337338491785E-05  1.680900405502E-04  2.912367483060E-04  4.128890066112E-04
  5.191951819613E-04  6.014651179787E-04  6.552761481809E-04  6.796141184731E-04
  6.760655296108E-04  6.480749518979E-04  6.002794968647E-04  5.379294245828E-04
  4.664010083770E-04  3.908046730236E-04  3.156882809531E-04  2.448323828851E-04
  1.811313955185E-04  1.265521359196E-04  8.215903641090E-05  4.819377511573E-05
  2.419605403045E-05  9.151879910932E-06  1.655964080451E-06  7.573326746144E-08
  2.705879104424E-06  7.904281437338E-06  1.420240444294E-05  2.038574679464E-05
  2.554247538710E-05  2.908082901835E-05  3.071809194225E-05  3.044577153597E-05
  2.847696015182E-05  2.518264462581E-05  2.102391608675E-05  1.648664161692E-05
  1.202424776115E-05  8.012935618697E-06  4.722034152939E-06  2.300461050473E-06
  7.785662439518E-07  8.314237952733E-08  6.223663240983E-08  5.156900397982E-07
  1.227116799493E-06  1.993315586909E-06  2.647822146575E-06  3.076362716467E-06
  3.223209742706E-06  3.088713087098E-06  2.719419470563E-06  2.193058643219E-06
  1.601164430621E-06  1.032163540083E-06  5.574166259680E-07  2.220057374377E-07
  4.115019157465E-08  0.000000000000E+00  0.000000000000E+00  0.000000000000E+00
  0.000000000000E+00  0.000000000000E+00  0.000000000000E+00  0.000000000000E+00
  0.000000000000E+00  0.000000000000E+00  0.000000000000E+00  0.000000000000E+00
  0.000000000000E+00  0.000000000000E+00  0.000000000000E+00  0.000000000000E+00
  0.000000000000E+00  0.000000000000E+00  0.000000000000E+00  0.000000000000E+00
  0.000000000000E+00  0.000000000000E+00  0.000000000000E+00  0.000000000000E+00
  0.000000000000E+00  0.000000000000E+00  0.000000000000E+00  0.000000000000E+00
  0.000000000000E+00  0.000000000000E+00  0.000000000000E+00  0.000000000000E+00
</data>
</radfunc>
</pseudocore-charge>
<semilocal-potentials set="lj">
<slps n="3" l="s" j="0.5" rc="1.56396656813" eref="-0.889300733539">
<radfunc>
<data npts="256">
  4.834948711990E+01  4.831878903205E+01  4.822719001196E+01  4.807493007049E+01
  4.786438950900E+01  4.758957256582E+01  4.724260870034E+01  4.684975954552E+01
  4.636835988091E+01  4.585582245250E+01  4.528776018597E+01  4.468161856011E+01
  4.396431253989E+01  4.323240439949E+01  4.251823514286E+01  4.171589708953E+01
  4.081781560826E+01  3.999100025685E+01  3.908869601714E+01  3.810740102875E+01
  3.704419707600E+01  3.613317703998E+01  3.516765122977E+01  3.414738058610E+01
  3.307262737323E+01  3.194420837346E+01  3.076354113016E+01  2.984496420905E+01
  2.889925045190E+01  2.792772283945E+01  2.693191665273E+01  2.591357615464E+01
  2.487464794596E+01  2.381727091231E+01  2.274376277067E+01  2.165660332301E+01
  2.055841462738E+01  1.945193839731E+01  1.871108098755E+01  1.796865777016E+01
  1.722553679440E+01  1.648259206757E+01  1.574069973661E+01  1.500073426351E+01
  1.426356463235E+01  1.353005062543E+01  1.280103920503E+01  1.207736103544E+01
  1.135982717818E+01  1.064922599037E+01  9.946320253244E+00  9.251844554620E+00
  8.566502945155E+00  7.890966884630E+00  7.225873490450E+00  6.571824096632E+00
  5.929383127640E+00  5.299077287693E+00  4.681395062601E+00  4.076786527910E+00
  3.485663454133E+00  2.908399697208E+00  2.345331860028E+00  1.796760209005E+00
  1.262949828052E+00  7.441319912668E-01  2.405057347114E-01 -5.556739776719E-03
 -2.477603927690E-01 -4.860886059461E-01 -7.205264200229E-01 -9.510604678243E-01
 -1.177678905672E+00 -1.400371343237E+00 -1.619128772006E+00 -1.833943492539E+00
 -2.044809040635E+00 -2.251720112575E+00 -2.454672489631E+00 -2.653662961923E+00
 -2.848689251842E+00 -3.039749937174E+00 -3.226844374091E+00 -3.409972620179E+00
 -3.589135357691E+00 -3.764333817204E+00 -3.935569701883E+00 -4.102845112588E+00
 -4.266162474051E+00 -4.425524462397E+00 -4.580933934313E+00 -4.732393858204E+00
 -4.879907247723E+00 -5.023477098114E+00 -5.163106325887E+00 -5.298797712399E+00
 -5.430553852016E+00 -5.558377105632E+00 -5.682269560430E+00 -5.802232996888E+00
 -5.918268864165E+00 -6.030378265157E+00 -6.138561952611E+00 -6.242820337854E+00
 -6.343153513759E+00 -6.439561293672E+00 -6.532043268030E+00 -6.620598880324E+00
 -6.705227523945E+00 -6.785928661141E+00 -6.862701964880E+00 -6.935547483851E+00
 -7.004465830014E+00 -7.069458387156E+00 -7.130527537790E+00 -7.187676904423E+00
 -7.240911599947E+00 -7.290238480551E+00 -7.335666393459E+00 -7.377206410939E+00
 -7.414872041680E+00 -7.448679410844E+00 -7.478647401126E+00 -7.504797748863E+00
 -7.527155091811E+00 -7.545746968378E+00 -7.560603771710E+00 -7.571758665751E+00
 -7.579247473820E+00 -7.583108553041E+00 -7.583382669689E+00 -7.580112890969E+00
 -7.573344507876E+00 -7.563125001493E+00 -7.549504061831E+00 -7.532533664282E+00
 -7.512268204430E+00 -7.488764687889E+00 -7.462082968211E+00 -7.432286023128E+00
 -7.399440257541E+00 -7.363615820726E+00 -7.324886925080E+00 -7.283332154184E+00
 -7.239034748873E+00 -7.192082861072E+00 -7.142569766388E+00 -7.090594027706E+00
 -7.036259603268E+00 -6.979675894107E+00 -6.920957727149E+00 -6.860225271971E+00
 -6.797603891104E+00 -6.733223925898E+00 -6.667220422307E+00 -6.599732803386E+00
 -6.530904497781E+00 -6.460882535825E+00 -6.389817126966E+00 -6.317861233984E+00
 -6.245170160703E+00 -6.171901170540E+00 -6.098213153273E+00 -6.024266356598E+00
 -5.950222197485E+00 -5.876243165813E+00 -5.802492829194E+00 -5.729135943127E+00
 -5.656338664535E+00 -5.584268859090E+00 -5.513096483436E+00 -5.442994012262E+00
 -5.374136867129E+00 -5.306703806458E+00 -5.240876981459E+00 -5.176841680462E+00
 -5.114790106371E+00 -5.054192911785E+00 -4.994294962702E+00 -4.935119751629E+00
 -4.876651875235E+00 -4.818879202246E+00 -4.761790830645E+00 -4.705375523021E+00
 -4.649623031050E+00 -4.594523780330E+00 -4.540068963648E+00 -4.486250530911E+00
 -4.433061153005E+00 -4.380494154020E+00 -4.328543414910E+00 -4.277203253406E+00