<?xml version="1.0" encoding="UTF-8" ?>
<psml version="1.1" energy_unit="hartree" length_unit="bohr"
 uuid="1e0d2c60-53a1-11e8-4e51-e8a77ffd7a8d"
 xmlns="http://esl.cecam.org/PSML/ns/1.1">
<provenance creator="ONCVPSP-3.3.0+psml-3.3.0-73 (fully-relativistic)"
 date="2018-05-09">
<annotation action="semilocal-pseudopotential-generation"
 action-cont="projectors-generation" />
<input-file name="oncvpsp-input">
<![CDATA[# atsym z nc nv iexc psfile
Nb 41 6 4 -116133 upf
# n l f
1 0 2.0
2 0 2.0
2 1 6.0
3 0 2.0
3 1 6.0
3 2 10.0
4 0 2.0
4 1 6.0
4 2 4.0
5 0 1.0
# lmax
2
# l rc ep ncon nbas qcut
0 1.5 0.0 4 7 7.8
1 1.4 0.0 4 7 9.0
2 1.4 0.0 4 7 9.2
# lloc lpopt rc5 dvloc0
4 5 1.25 0.0
# l nproj debl
0 2 1.0
1 2 1.8
2 2 1.5
# icmod fcfact rcfact
3 5.0 1.5
# epsh1 epsh2 depsh
-12.0 12.0 0.02
# rlmax drl
6.0 0.01
 0
]]>
</input-file>
</provenance>
<pseudo-atom-spec atomic-label="Nb" atomic-number="41" z-pseudo="13"
 flavor="Hamann&apos;s oncvpsp" relativity="dirac" spin-dft="no"
 core-corrections="yes">
<annotation pseudo-energy="-57.0679246609" />
<exchange-correlation>
<annotation oncvpsp-xc-code="-116133" oncvpsp-xc-type="libxc-interface" />
<libxc-info number-of-functionals="2">
<functional name="Perdew, Burke &amp; Ernzerhof SOL (GGA)" type="exchange"
 id="116" />
<functional name="Perdew, Burke &amp; Ernzerhof SOL (GGA)" type="correlation"
 id="133" />
</libxc-info>
</exchange-correlation>
<valence-configuration total-valence-charge="13">
<shell n="4" l="s" occupation="2" />
<shell n="4" l="p" occupation="6" />
<shell n="4" l="d" occupation="4" />
<shell n="5" l="s" occupation="1" />
</valence-configuration>
</pseudo-atom-spec>
<grid npts="457">
<annotation type="sampled from oncvpsp log grid"
 recipe="r(i:1..N) = r1*exp(a*(i-1)) + r=0; resampled"
 recipe-cont="r1: scale; a: step" scale="0.121951219512E-04"
 step="0.119285708653E-01" delta="0.500000000000E-02" rmax="44.1280744696" />
<grid-data>
  0.000000000000E+00  5.039007004218E-03  1.006502104386E-02  1.509913653849E-02
  2.010408966061E-02  2.521820379404E-02  3.052125238152E-02  3.564092875491E-02
  4.112587609116E-02  4.633618645073E-02  5.158754969678E-02  5.675302309559E-02
  6.243571655217E-02  6.787294410245E-02  7.290876853877E-02  7.831822532726E-02
  8.412903607266E-02  8.929938654214E-02  9.478749322547E-02  1.006128845883E-01
  1.067962892646E-01  1.120155235337E-01  1.174898266497E-01  1.232316640651E-01
  1.292541104306E-01  1.355708793673E-01  1.421963546938E-01  1.473770980033E-01
  1.527465951054E-01  1.583117230044E-01  1.640796092595E-01  1.700576411136E-01
  1.762534749543E-01  1.826750461198E-01  1.893305790625E-01  1.962285978822E-01
  2.033779372432E-01  2.107877536900E-01  2.158770132150E-01  2.210891478221E-01
  2.264271242071E-01  2.318939806940E-01  2.374928289639E-01  2.432268558264E-01
  2.490993250334E-01  2.551135791370E-01  2.612730413917E-01  2.675812177031E-01
  2.740416986233E-01  2.806581613949E-01  2.874343720436E-01  2.943741875222E-01
  3.014815579057E-01  3.087605286398E-01  3.162152428433E-01  3.238499436665E-01
  3.316689767064E-01  3.396767924800E-01  3.478779489576E-01  3.562771141573E-01
  3.648790688015E-01  3.736887090386E-01  3.827110492296E-01  3.919512248022E-01
  4.014144951739E-01  4.111062467454E-01  4.210319959668E-01  4.260843799184E-01
  4.311973924774E-01  4.363717611871E-01  4.416082223214E-01  4.469075209892E-01
  4.522704112411E-01  4.576976561760E-01  4.631900280501E-01  4.687483083867E-01
  4.743732880873E-01  4.800657675444E-01  4.858265567549E-01  4.916564754360E-01
  4.975563531412E-01  5.035270293789E-01  5.095693537315E-01  5.156841859762E-01
  5.218723962079E-01  5.281348649624E-01  5.344724833420E-01  5.408861531421E-01
  5.473767869798E-01  5.539453084236E-01  5.605926521246E-01  5.673197639501E-01
  5.741276011175E-01  5.810171323309E-01  5.879893379189E-01  5.950452099739E-01
  6.021857524936E-01  6.094119815236E-01  6.167249253018E-01  6.241256244055E-01
  6.316151318983E-01  6.391945134811E-01  6.468648476429E-01  6.546272258146E-01
  6.624827525244E-01  6.704325455547E-01  6.784777361013E-01  6.866194689345E-01
  6.948589025618E-01  7.031972093925E-01  7.116355759052E-01  7.201752028161E-01
  7.288173052499E-01  7.375631129129E-01  7.464138702678E-01  7.553708367110E-01
  7.644352867516E-01  7.736085101926E-01  7.828918123149E-01  7.922865140627E-01
  8.017939522314E-01  8.114154796582E-01  8.211524654141E-01  8.310062949991E-01
  8.409783705390E-01  8.510701109855E-01  8.612829523173E-01  8.716183477452E-01
  8.820777679181E-01  8.926627011331E-01  9.033746535467E-01  9.142151493893E-01
  9.251857311819E-01  9.362879599561E-01  9.475234154756E-01  9.588936964613E-01
  9.704004208188E-01  9.820452258687E-01  9.938297685791E-01  1.005755725802E+00
  1.017824794512E+00  1.030038692046E+00  1.042399156350E+00  1.054907946227E+00
  1.067566841581E+00  1.080377643680E+00  1.093342175404E+00  1.106462281509E+00
  1.119739828887E+00  1.133176706834E+00  1.146774827316E+00  1.160536125244E+00
  1.174462558747E+00  1.188556109452E+00  1.202818782765E+00  1.217252608158E+00
  1.231859639456E+00  1.246641955130E+00  1.261601658591E+00  1.276740878494E+00
  1.292061769036E+00  1.307566510265E+00  1.323257308388E+00  1.339136396089E+00
  1.355206032842E+00  1.371468505236E+00  1.387926127299E+00  1.404581240826E+00
  1.421436215716E+00  1.438493450305E+00  1.455755371708E+00  1.473224436169E+00
  1.490903129403E+00  1.508793966956E+00  1.526899494559E+00  1.545222288494E+00
  1.563764955956E+00  1.582530135427E+00  1.601520497052E+00  1.620738743017E+00
  1.640187607933E+00  1.659869859228E+00  1.679788297539E+00  1.699945757110E+00
  1.720345106195E+00  1.740989247469E+00  1.761881118439E+00  1.783023691860E+00
  1.804419976162E+00  1.826073015876E+00  1.847985892067E+00  1.870161722772E+00
  1.892603663445E+00  1.915314907406E+00  1.938298686295E+00  1.961558270531E+00
  1.985096969777E+00  2.008918133414E+00  2.033025151015E+00  2.057421452828E+00
  2.082110510262E+00  2.107095836385E+00  2.132380986421E+00  2.157969558258E+00
  2.183865192957E+00  2.210071575273E+00  2.236592434176E+00  2.263431543386E+00
  2.290592721907E+00  2.318079834570E+00  2.345896792585E+00  2.374047554096E+00
  2.402536124745E+00  2.431366558242E+00  2.460542956941E+00  2.490069472424E+00
  2.519950306093E+00  2.550189709766E+00  2.580791986283E+00  2.611761490119E+00
  2.643102628000E+00  2.674819859536E+00  2.706917697851E+00  2.739400710225E+00
  2.772273518748E+00  2.805540800972E+00  2.839207290584E+00  2.873277778071E+00
  2.907757111408E+00  2.942650196745E+00  2.977961999106E+00  3.013697543095E+00
  3.049861913612E+00  3.086460256576E+00  3.123497779655E+00  3.160979753010E+00
  3.198911510046E+00  3.237298448167E+00  3.276146029545E+00  3.315459781900E+00
  3.355245299282E+00  3.395508242874E+00  3.436254341788E+00  3.477489393890E+00
  3.519219266616E+00  3.561449897816E+00  3.604187296590E+00  3.647437544149E+00
  3.691206794678E+00  3.735501276215E+00  3.780327291529E+00  3.825691219028E+00
  3.871599513656E+00  3.918058707820E+00  3.965075412314E+00  4.012656317261E+00
  4.060808193068E+00  4.109537891385E+00  4.158852346082E+00  4.208758574235E+00
  4.259263677126E+00  4.310374841251E+00  4.362099339346E+00  4.414444531418E+00
  4.467417865795E+00  4.521026880185E+00  4.575279202747E+00  4.630182553180E+00
  4.685744743818E+00  4.741973680744E+00  4.798877364913E+00  4.856463893292E+00
  4.914741460011E+00  4.973718357532E+00  5.033402977822E+00  5.093803813556E+00
  5.154929459319E+00  5.216788612830E+00  5.279390076184E+00  5.342742757099E+00
  5.406855670184E+00  5.471737938226E+00  5.537398793485E+00  5.603847579006E+00
  5.671093749955E+00  5.739146874954E+00  5.808016637453E+00  5.877712837103E+00
  5.948245391148E+00  6.019624335842E+00  6.091859827872E+00  6.164962145806E+00
  6.238941691556E+00  6.313808991855E+00  6.389574699757E+00  6.466249596154E+00
  6.543844591308E+00  6.622370726404E+00  6.701839175121E+00  6.782261245222E+00
  6.863648380165E+00  6.946012160727E+00  7.029364306655E+00  7.113716678335E+00
  7.199081278475E+00  7.285470253817E+00  7.372895896863E+00  7.461370647625E+00
  7.550907095397E+00  7.641517980541E+00  7.733216196308E+00  7.826014790664E+00
  7.919926968152E+00  8.014966091769E+00  8.111145684871E+00  8.208479433089E+00
  8.306981186286E+00  8.406664960521E+00  8.507544940048E+00  8.609635479328E+00
  8.712951105080E+00  8.817506518341E+00  8.923316596561E+00  9.030396395720E+00
  9.138761152469E+00  9.248426286298E+00  9.359407401734E+00  9.471720290555E+00
  9.585380934041E+00  9.700405505250E+00  9.816810371313E+00  9.934612095769E+00
  1.005382744092E+01  1.017447337021E+01  1.029656705065E+01  1.042012585526E+01
  1.054516736552E+01  1.067170937391E+01  1.079976988640E+01  1.092936712503E+01
  1.106051953053E+01  1.119324576490E+01  1.132756471408E+01  1.146349549065E+01
  1.160105743653E+01  1.174027012577E+01  1.188115336728E+01  1.202372720769E+01
  1.216801193418E+01  1.231402807739E+01  1.246179641432E+01  1.261133797129E+01
  1.276267402695E+01  1.291582611527E+01  1.307081602865E+01  1.322766582100E+01
  1.338639781085E+01  1.354703458458E+01  1.370959899960E+01  1.387411418759E+01
  1.404060355784E+01  1.420909080054E+01  1.437959989014E+01  1.455215508882E+01
  1.472678094989E+01  1.490350232129E+01  1.508234434914E+01  1.526333248133E+01
  1.544649247111E+01  1.563185038076E+01  1.581943258533E+01  1.600926577636E+01
  1.620137696567E+01  1.639579348926E+01  1.659254301113E+01  1.679165352727E+01
  1.699315336959E+01  1.719707121003E+01  1.740343606455E+01  1.761227729732E+01
  1.782362462489E+01  1.803750812039E+01  1.825395821783E+01  1.847300571645E+01
  1.869468178505E+01  1.891901796647E+01  1.914604618206E+01  1.937579873625E+01
  1.960830832108E+01  1.984360802094E+01  2.008173131719E+01  2.032271209299E+01
  2.056658463811E+01  2.081338365377E+01  2.106314425761E+01  2.131590198870E+01
  2.157169281257E+01  2.183055312632E+01  2.209251976383E+01  2.235763000100E+01
  2.262592156101E+01  2.289743261974E+01  2.317220181118E+01  2.345026823292E+01
  2.373167145171E+01  2.401645150913E+01  2.430464892724E+01  2.459630471437E+01
  2.489146037094E+01  2.519015789539E+01  2.549243979014E+01  2.579834906762E+01
  2.610792925643E+01  2.642122440751E+01  2.673827910040E+01  2.705913844960E+01
  2.738384811100E+01  2.771245428833E+01  2.804500373979E+01  2.838154378467E+01
  2.872212231008E+01  2.906678777780E+01  2.941558923114E+01  2.976857630191E+01
  3.012579921753E+01  3.048730880814E+01  3.085315651384E+01  3.122339439201E+01
  3.159807512471E+01  3.197725202621E+01  3.236097905052E+01  3.274931079913E+01
  3.314230252872E+01  3.354001015906E+01  3.394249028097E+01  3.434980016434E+01
  3.476199776632E+01  3.517914173951E+01  3.560129144039E+01  3.602850693767E+01
  3.646084902092E+01  3.689837920917E+01  3.734115975968E+01  3.778925367680E+01
  3.824272472092E+01  3.870163741757E+01  3.916605706658E+01  3.963604975138E+01
  4.011168234840E+01  4.059302253658E+01  4.108013880702E+01  4.157310047270E+01
  4.207197767837E+01  4.257684141052E+01  4.308776350744E+01  4.360481666953E+01
  4.412807446957E+01
</grid-data>
</grid>
<valence-charge total-charge="13" is-unscreening-charge="yes"
 rescaled-to-z-pseudo="no">
<radfunc>
<data npts="457">
  5.555258619778E-02  5.577962162178E-02  5.645891439379E-02  5.759423557454E-02
  5.917693474993E-02  6.126547783364E-02  6.393958754498E-02  6.701859076456E-02
  7.086769906982E-02  7.506051998871E-02  7.982547174265E-02  8.505143663662E-02
  9.143236208483E-02  9.817258490999E-02  1.049834326143E-01  1.129246186229E-01
  1.221966457408E-01  1.311115759176E-01  1.412801260475E-01  1.528933329259E-01
  1.661745877207E-01  1.781750576307E-01  1.915644954021E-01  2.065191154847E-01
  2.232398506797E-01  2.419560776823E-01  2.629299031500E-01  2.803205730362E-01
  2.992910163505E-01  3.199985504943E-01  3.426173075950E-01  3.673400382719E-01
  3.943800822420E-01  4.239735118624E-01  4.563814518702E-01  4.918925746078E-01
  5.308257646139E-01  5.735329392817E-01  6.042910322834E-01  6.370224970553E-01
  6.718598996333E-01  7.089443352626E-01  7.484258341750E-01  7.904637578698E-01
  8.352271791869E-01  8.828952381964E-01  9.336574645112E-01  9.877140550293E-01
  1.045276094329E+00  1.106565702967E+00  1.171816096730E+00  1.241271537541E+00
  1.315187154072E+00  1.393828607390E+00  1.477471573942E+00  1.566401015093E+00
  1.660910199190E+00  1.761299438806E+00  1.867874502579E+00  1.980944657846E+00
  2.100820297383E+00  2.227810100978E+00  2.362217680633E+00  2.504337657014E+00
  2.654451114708E+00  2.812820385132E+00  2.979683109079E+00  3.066365394791E+00
  3.155245536093E+00  3.246343179105E+00  3.339675025808E+00  3.435254554532E+00
  3.533091727438E+00  3.633192685092E+00  3.735559428357E+00  3.840189487892E+00
  3.947075581687E+00  4.056205261182E+00  4.167560546640E+00  4.281117552613E+00
  4.396846104482E+00  4.514709347244E+00  4.634663347878E+00  4.756656692843E+00
  4.880630082462E+00  5.006515924151E+00  5.134237926730E+00  5.263710698225E+00
  5.394839349897E+00  5.527519109437E+00  5.661634946566E+00  5.797061214522E+00
  5.933661311227E+00  6.071287364155E+00  6.209779943216E+00  6.348967806240E+00
  6.488667681861E+00  6.628684094883E+00  6.768809239368E+00  6.908822904937E+00
  7.048492461870E+00  7.187572910774E+00  7.325807002599E+00  7.462925434871E+00
  7.598647129926E+00  7.732679600864E+00  7.864719410767E+00  7.994452730457E+00
  8.121555999742E+00  8.245696696687E+00  8.366534218863E+00  8.483720879932E+00
  8.596903024133E+00  8.705722260393E+00  8.809816816758E+00  8.908823014750E+00
  9.002376862000E+00  9.090115760149E+00  9.171680323542E+00  9.246716302652E+00
  9.314876604486E+00  9.375823400468E+00  9.429230310441E+00  9.474784649588E+00
  9.512189723096E+00  9.541167151568E+00  9.561459208226E+00  9.572831147216E+00
  9.575073500577E+00  9.568004319912E+00  9.551471337398E+00  9.525354019671E+00
  9.489565487233E+00  9.444054271518E+00  9.388805881550E+00  9.323844152422E+00
  9.249232348458E+00  9.165073995133E+00  9.071513415508E+00  8.968735949132E+00
  8.856967834153E+00  8.736475736653E+00  8.607565915076E+00  8.470583011908E+00
  8.325908469614E+00  8.173958572959E+00  8.015182125428E+00  7.850057773164E+00
  7.679090995784E+00  7.502810789322E+00  7.321766072393E+00  7.136521852189E+00
  6.947655192141E+00  6.755751027688E+00  6.561397880556E+00  6.365183525116E+00
  6.167690662579E+00  5.969492659995E+00  5.771149411055E+00  5.573203374683E+00
  5.376175845153E+00  5.180563504364E+00  4.986835302581E+00  4.795429708389E+00
  4.606752362247E+00  4.421174161279E+00  4.239029795610E+00  4.060616749106E+00
  3.886195160953E+00  3.715989777471E+00  3.550193290862E+00  3.388967744056E+00
  3.232445075991E+00  3.080728582319E+00  2.933894484354E+00  2.791994504691E+00
  2.655059015142E+00  2.523098375137E+00  2.396104299271E+00  2.274051223996E+00
  2.156897675443E+00  2.044587625047E+00  1.937051824970E+00  1.834209117296E+00
  1.735967709545E+00  1.642226411316E+00  1.552875827029E+00  1.467799500528E+00
  1.386875008031E+00  1.309974996528E+00  1.236968165405E+00  1.167720189623E+00
  1.102094583382E+00  1.039953503685E+00  9.811584937046E-01  9.255711663289E-01
  8.730538286008E-01  8.234700481860E-01  7.766851632878E-01  7.325667377231E-01
  6.909849631156E-01  6.518130103689E-01  6.149273327569E-01  5.802079231058E-01
  5.475385276509E-01  5.168068192279E-01  4.879045325077E-01  4.607275640054E-01
  4.351760395941E-01  4.111543522277E-01  3.885711725432E-01  3.673394349123E-01
  3.473763014805E-01  3.286031066680E-01  3.109452843726E-01  2.943322801408E-01
  2.786974503881E-01  2.639779506368E-01  2.501146146118E-01  2.370518259061E-01
  2.247373837999E-01  2.131223646867E-01  2.021609804408E-01  1.918104349338E-01
  1.820307797965E-01  1.727847704078E-01  1.640377229860E-01  1.557573735585E-01
  1.479137394875E-01  1.404789841402E-01  1.334272852085E-01  1.267347070988E-01
  1.203790777443E-01  1.143398701176E-01  1.085980886610E-01  1.031361607919E-01
  9.793783358701E-02  9.298807570093E-02  8.827298453015E-02  8.377969859611E-02
  7.949631508485E-02  7.541181245220E-02  7.151597797687E-02  6.779934012261E-02
  6.425310555199E-02  6.086910061991E-02  5.763971716336E-02  5.455786239491E-02
  5.161691270173E-02  4.881067114761E-02  4.613332847416E-02  4.357942739709E-02
  4.114382999553E-02  3.882168799537E-02  3.660841575224E-02  3.449966574526E-02
  3.249130639948E-02  3.057940206225E-02  2.876019496721E-02  2.703008902834E-02
  2.538563531594E-02  2.382351907618E-02  2.234054816571E-02  2.093364278295E-02
  1.959982638754E-02  1.833621770863E-02  1.714002375203E-02  1.600853372404E-02
  1.493911379489E-02  1.392920264600E-02  1.297630770948E-02  1.207800206929E-02
  1.123192195128E-02  1.043576474946E-02  9.687287533251E-03  8.984305981050E-03
  8.324693684712E-03  7.706381769977E-03  7.127358777631E-03  6.585670750919E-03
  6.079421475987E-03  5.606772824155E-03  5.165945147672E-03  4.755217684243E-03
  4.372928929915E-03  4.017476944794E-03  3.687319561339E-03  3.380974470486E-03
  3.097019166387E-03  2.834090736009E-03  2.590885484992E-03  2.366158395979E-03
  2.158722419963E-03  1.967447604995E-03  1.791260069829E-03  1.629140832762E-03
  1.480124507997E-03  1.343297883421E-03  1.217798394752E-03  1.102812511573E-03
  9.975740509857E-04  9.013624344438E-04  8.135009028617E-04  7.333547044010E-04
  6.603292684360E-04  5.938683781622E-04  5.334523531654E-04  4.785962520604E-04
  4.288481040732E-04  3.837871771980E-04  3.430222893566E-04  3.061901678194E-04
  2.729538610605E-04  2.430012062037E-04  2.160433543000E-04  1.918133548587E-04
  1.700648003406E-04  1.505705307084E-04  1.331213976241E-04  1.175250874654E-04
  1.036050020108E-04  9.119919539650E-05  8.015936577113E-05  7.034989995951E-05
  6.164696937463E-05  5.393767538908E-05  4.711924237360E-05  4.109825662983E-05
  3.578994947593E-05  3.111752278332E-05  2.701151530487E-05  2.340920817681E-05
  2.025406801549E-05  1.749522606517E-05  1.508699188327E-05  1.298840007560E-05
  1.116278861570E-05  9.577407301783E-06  8.203054921373E-06  7.013743709801E-06
  5.986389704966E-06  5.100527617955E-06  4.338048858400E-06  3.682961375378E-06
  3.121169999657E-06  2.640276001576E-06  2.229394610931E-06  1.878989280828E-06
  1.580721516562E-06  1.327315132755E-06  1.112433847025E-06  9.305711658741E-07
  7.769515677918E-07  6.474420394103E-07  5.384730722445E-07  4.469682798011E-07
  3.702818470588E-07  3.061430761390E-07  2.526073429832E-07  2.080128296925E-07
  1.709424455433E-07  1.401903963314E-07  1.147329063854E-07  9.370264017019E-08
  7.636641074505E-08  6.210580036664E-08  5.040035418197E-08  4.081304123091E-08
  3.297770788204E-08  2.658827740098E-08  2.138947565525E-08  1.716888707392E-08
  1.375016699340E-08  1.098725653702E-08  8.759464304016E-09  6.967295500325E-09
  5.528923845059E-09  4.377214753823E-09  3.457220049075E-09  2.724074895181E-09
  2.141236912905E-09  1.679015602410E-09  1.313347397349E-09  1.024777981763E-09
  7.976190165172E-10  6.192512268525E-10  4.795499751462E-10  3.704130543849E-10
  2.853735536507E-10  2.192833263132E-10  1.680548883953E-10  1.284515370332E-10
  9.791715038940E-11  7.443854941927E-11  5.643450279577E-11  4.266646933652E-11
  3.216702419622E-11  2.418262917412E-11  1.812800373830E-11  1.354985066568E-11
  1.009810682130E-11  7.503208620929E-12  4.444546622227E-12  1.243959377734E-12
  8.947891767615E-13  6.412683353316E-13  4.578724366466E-13  3.256984354867E-13
  2.307989896957E-13  1.629219266377E-13  1.145599110857E-13  8.023671458380E-14
  5.597325124120E-14  3.888966376654E-14  2.690996749341E-14  1.854369601748E-14
  1.272512667328E-14  8.695386657750E-15  5.916360979507E-15  4.008087103280E-15
  2.703421883760E-15  1.815356291177E-15  1.213551490962E-15  8.075686496853E-16
  5.349361435566E-16  3.526969732944E-16  2.314486115316E-16  1.511596738326E-16
  9.824738406854E-17  6.354546913609E-17  4.089792615824E-17  2.619059300818E-17
  1.668747629370E-17  1.057817860706E-17  6.670821705432E-18  4.184744537651E-18
  2.611273726061E-18  1.620697623971E-18  1.000436951645E-18  6.141680648613E-19
  3.749434890157E-19  2.276126718530E-19  1.373882827880E-19  8.245098327795E-20
  4.919316381544E-20  2.917735781136E-20  1.720238270412E-20  1.008094978531E-20
  5.871551474738E-21  3.398684354319E-21  1.954982433714E-21  1.117418749478E-21
  6.345956731377E-22  0.000000000000E+00  0.000000000000E+00  0.000000000000E+00
  0.000000000000E+00
</data>
</radfunc>
</valence-charge>
<pseudocore-charge matching-radius="0.792286514063"
 number-of-continuous-derivatives="4">
<annotation model-charge-form="Teter function with specified parameters" />
<radfunc>
<data npts="290">
  4.775586745491E+01  4.775315493678E+01  4.774504620145E+01  4.773151768863E+01
  4.771270767153E+01  4.768797315575E+01  4.765644710744E+01  4.762034396974E+01
  4.757550115379E+01  4.752701348106E+01  4.747235384541E+01  4.741293567175E+01
  4.734111580416E+01  4.726609612233E+01  4.719114190438E+01  4.710479095023E+01
  4.700533491287E+01  4.691104087630E+01  4.680501276841E+01  4.668582061717E+01
  4.655186831529E+01  4.643289006654E+01  4.630232742971E+01  4.615908864031E+01
  4.600198662927E+01  4.582973232114E+01  4.564092782431E+01  4.548755744609E+01
  4.532334535513E+01  4.514756791175E+01  4.495945974983E+01  4.475821241337E+01
  4.454297313318E+01  4.431284378556E+01  4.406688008139E+01  4.380409104118E+01
  4.352343882034E+01  4.322383895729E+01  4.301302291325E+01  4.279293826879E+01
  4.256323049434E+01  4.232353682868E+01  4.207348667530E+01  4.181270208197E+01
  4.154079831159E+01  4.125738451318E+01  4.096206450202E+01  4.065443765879E+01
  4.033409995771E+01  4.000064513440E+01  3.965366600438E+01  3.929275594358E+01
  3.891751054249E+01  3.852752944564E+01  3.812241838845E+01  3.770179144301E+01
  3.726527348455E+01  3.681250288957E+01  3.634313447608E+01  3.585684269558E+01
  3.535332508495E+01  3.483230598492E+01  3.429354052993E+01  3.373681891141E+01
  3.316197091395E+01  3.256887071997E+01  3.195744197455E+01  3.164484536153E+01
  3.132766309733E+01  3.100590195192E+01  3.067957282256E+01  3.034869091756E+01
  3.001327594246E+01  2.967335228832E+01  2.932894922164E+01  2.898010107567E+01
  2.862684744251E+01  2.826923336571E+01  2.790730953266E+01  2.754113246632E+01
  2.717076471570E+01  2.679627504434E+01  2.641773861618E+01  2.603523717811E+01
  2.564885923819E+01  2.525870023901E+01  2.486486272498E+01  2.446745650288E+01
  2.406659879440E+01  2.366241437989E+01  2.325503573192E+01  2.284460313779E+01
  2.243126480960E+01  2.201517698058E+01  2.159650398663E+01  2.117541833144E+01
  2.075210073401E+01  2.032674015699E+01  1.989953381456E+01  1.947068715823E+01
  1.904041383908E+01  1.860893564502E+01  1.817648241139E+01  1.774329190351E+01
  1.730960966962E+01  1.687568886262E+01  1.644179002935E+01  1.600818086581E+01
  1.557513593698E+01  1.514293636009E+01  1.471186944989E+01  1.428222832506E+01
  1.385431147455E+01  1.342842228322E+01  1.300486851585E+01  1.258396175920E+01
  1.216601682161E+01  1.175135109026E+01  1.134028384591E+01  1.093313553587E+01
  1.053022700548E+01  1.013187868947E+01  9.738409764108E+00  9.350137262121E+00
  8.967375152167E+00  8.590433385348E+00  8.219616911560E+00  7.855224668861E+00
  7.497548549530E+00  7.146872346887E+00  6.803470687406E+00  6.467607953112E+00
  6.139537199687E+00  5.819499076154E+00  5.507720752460E+00  5.204414861672E+00
  4.909778463894E+00  4.623992039403E+00  4.347218518774E+00  4.079602358108E+00
  3.821268667651E+00  3.572322402291E+00  3.332847622504E+00  3.102906834354E+00
  2.882540417065E+00  2.671766146556E+00  2.470578823045E+00  2.278950010473E+00
  2.096827895014E+00  1.924137269345E+00  1.760779648610E+00  1.606633523168E+00
  1.461554752245E+00  1.325377101487E+00  1.197912926210E+00  1.078954000734E+00
  9.682724928488E-01  8.656220807573E-01  7.707392083233E-01  6.833444726735E-01
  6.031441364702E-01  5.298317553831E-01  4.630899095048E-01  4.025920257009E-01
  3.480042761929E-01  2.989875370717E-01  2.551993889684E-01  2.162961408088E-01
  1.819348564704E-01  1.517753633058E-01  1.254822209043E-01  1.027266281870E-01
  8.318824699068E-02  6.655692071730E-02  5.253426743225E-02  4.083512799781E-02
  3.118885143049E-02  2.334040167248E-02  1.705127235109E-02  1.210019884284E-02
  8.283660024245E-03  5.416165432252E-03  3.330327115388E-03  1.876719161963E-03
  9.235316655507E-04  3.560296422767E-04  7.583105496434E-05  2.152736617343E-08
  6.012644734675E-05  2.009638627158E-04  3.794037742544E-04  5.630610432061E-04
  7.289500837936E-04  8.621297504823E-04  9.543663202086E-04  1.002841200426E-03
  1.008927979199E-03  9.770607157745E-04  9.137120193298E-04  8.264955776956E-04
  7.234035002984E-04  6.121842762157E-04  4.998624826645E-04  3.923967866125E-04
  2.944684420515E-04  2.093885734680E-04  1.391092152259E-04  8.432048835446E-05
  4.461455183613E-05  1.869613826060E-05  4.619602920897E-06  3.346220064945E-08
  2.415302835031E-06  9.282591443515E-06  1.836814307652E-05  2.775262199582E-05
  3.595022612170E-05  4.194741549165E-05  4.519795516992E-05  4.558044430368E-05
  4.332672052743E-05  3.893093683383E-05  3.304964059568E-05  2.640284278807E-05
  1.968491936449E-05  1.349237043639E-05  8.273165166794E-06  4.299848941339E-06
  1.666031377725E-06  3.035523729531E-07  1.575474438560E-08  5.210430216350E-07
  1.500378535409E-06  2.642572653594E-06  3.682132682289E-06  4.425852656085E-06
  4.766127331729E-06  4.680867770004E-06  4.221667383090E-06  3.493286394930E-06
  2.628419370972E-06  1.761988173650E-06  1.008852934476E-06  4.479379053701E-07
  1.144874079676E-07  7.144286535518E-10  0.000000000000E+00  0.000000000000E+00
  0.000000000000E+00  0.000000000000E+00  0.000000000000E+00  0.000000000000E+00
  0.000000000000E+00  0.000000000000E+00  0.000000000000E+00  0.000000000000E+00
  0.000000000000E+00  0.000000000000E+00  0.000000000000E+00  0.000000000000E+00
  0.000000000000E+00  0.000000000000E+00  0.000000000000E+00  0.000000000000E+00
  0.000000000000E+00  0.000000000000E+00  0.000000000000E+00  0.000000000000E+00
  0.000000000000E+00  0.000000000000E+00  0.000000000000E+00  0.000000000000E+00
  0.000000000000E+00  0.000000000000E+00  0.000000000000E+00  0.000000000000E+00
  0.000000000000E+00  0.000000000000E+00  0.000000000000E+00  0.000000000000E+00
  0.000000000000E+00  0.000000000000E+00  0.000000000000E+00  0.000000000000E+00
  0.000000000000E+00  0.000000000000E+00  0.000000000000E+00  0.000000000000E+00
  0.000000000000E+00  0.000000000000E+00
</data>
</radfunc>
</pseudocore-charge>
<semilocal-potentials set="lj">
<slps n="4" l="s" j="0.5" rc="1.50879396696" eref="-2.14336196447">
<radfunc>
<data npts="290">
  6.392997613773E+01  6.387396173433E+01  6.370693884413E+01  6.342969322859E+01
  6.304712061712E+01  6.254913385632E+01  6.192263714158E+01  6.121626788951E+01
  6.035496500490E+01  5.944309921204E+01  5.843859648732E+01  5.737381985145E+01
  5.612308648723E+01  5.485718674196E+01  5.363187174132E+01  5.226680801768E+01
  5.075312362861E+01  4.937270230546E+01  4.788042510354E+01  4.627406057508E+01
  4.455277106221E+01  4.309346516000E+01  4.156232445758E+01  3.996140978115E+01
  3.829364225069E+01  3.656283137189E+01  3.477368261240E+01  3.339686494520E+01
  3.199302632037E+01  3.056508748558E+01  2.911620112668E+01  2.764972804432E+01
  2.616920930114E+01  2.467833479431E+01  2.318090883164E+01  2.168081339611E+01
  2.018196986866E+01  1.868830003694E+01  1.769731486074E+01  1.671148990282E+01
  1.573193854673E+01  1.475974966776E+01  1.379598328081E+01  1.284166647365E+01
  1.189778965946E+01  1.096530317783E+01  1.004511426806E+01  9.138084433811E+00
  8.245027212215E+00  7.366706355765E+00  6.503834429734E+00  5.657071823066E+00
  4.827026165939E+00  4.014252142896E+00  3.219251686560E+00  2.442474533535E+00
  1.684319121156E+00  9.451338013619E-01  2.252183460599E-01 -4.751742830852E-01
 -1.155835928399E+00 -1.816601021964E+00 -2.457344191975E+00 -3.077977717971E+00
 -3.678448862674E+00 -4.258737107317E+00 -4.818851316278E+00 -5.091353253415E+00
 -5.358826855658E+00 -5.621280208128E+00 -5.878722689064E+00 -6.131164879344E+00
 -6.378618472467E+00 -6.621096185133E+00 -6.858611668577E+00 -7.091179420777E+00
 -7.318814699673E+00 -7.541533437517E+00 -7.759352156476E+00 -7.972287885596E+00
 -8.180358079252E+00 -8.383580537165E+00 -8.581973326119E+00 -8.775554703447E+00
 -8.964343042410E+00 -9.148356759535E+00 -9.327614244035E+00 -9.502133789376E+00
 -9.671933527103E+00 -9.837031362999E+00 -9.997444915693E+00 -1.015319145779E+01
 -1.030428785966E+01 -1.045075053591E+01 -1.059259539480E+01 -1.072983779054E+01
 -1.086249247875E+01 -1.099057357513E+01 -1.111409451750E+01 -1.123306803146E+01
 -1.134750609970E+01 -1.145741993527E+01 -1.156281995899E+01 -1.166371578121E+01
 -1.176011618812E+01 -1.185202913304E+01 -1.193946173275E+01 -1.202242026932E+01
 -1.210091019769E+01 -1.217493615943E+01 -1.224450200281E+01 -1.230961080981E+01
 -1.237026493029E+01 -1.242646602368E+01 -1.247821510867E+01 -1.252551262115E+01
 -1.256835848089E+01 -1.260675216722E+01 -1.264069280404E+01 -1.267017925450E+01
 -1.269521022566E+01 -1.271578438323E+01 -1.273190047678E+01 -1.274355747546E+01
 -1.275075471447E+01 -1.275349205238E+01 -1.275177003944E+01 -1.274559009707E+01
 -1.273495470867E+01 -1.271986762211E+01 -1.270033406415E+01 -1.267636096741E+01
 -1.264795721059E+01 -1.261513387275E+01 -1.257790450302E+01 -1.253628540717E+01
 -1.249029595299E+01 -1.243995889671E+01 -1.238530073333E+01 -1.232635207388E+01
 -1.226314805350E+01 -1.219572877436E+01 -1.212413978816E+01 -1.204843262331E+01
 -1.196866536236E+01 -1.188490327551E+01 -1.179721951662E+01 -1.170569588789E+01
 -1.161042367985E+01 -1.151150459293E+01 -1.140905174669E+01 -1.130319078196E+01