<?xml version="1.0" encoding="UTF-8" ?>
<psml version="1.1" energy_unit="hartree" length_unit="bohr"
 uuid="1b394150-53a0-11e8-7aeb-6456ffefc9e3"
 xmlns="http://esl.cecam.org/PSML/ns/1.1">
<provenance creator="ONCVPSP-3.3.0+psml-3.3.0-73 (fully-relativistic)"
 date="2018-05-09">
<annotation action="semilocal-pseudopotential-generation"
 action-cont="projectors-generation" />
<input-file name="oncvpsp-input">
<![CDATA[# atsym z nc nv iexc psfile
He 2 0 1 -116133 upf
# n l f
1 0 2.0
# lmax
1
# l rc ep ncon nbas qcut
0 1.25 0.0 4 8 9.4
1 1.13 0.05 4 7 9.4
# lloc lpopt rc5 dvloc0
4 5 1.0 0.0
# l nproj debl
0 2 1.0
1 1 1.0
# icmod fcfact rcfact
0 0.25 0.0
# epsh1 epsh2 depsh
-12.0 12.0 0.02
# rlmax drl
6.0 0.01
 0
]]>
</input-file>
</provenance>
<pseudo-atom-spec atomic-label="He" atomic-number="2" z-pseudo="2"
 flavor="Hamann&apos;s oncvpsp" relativity="dirac" spin-dft="no"
 core-corrections="no">
<annotation pseudo-energy="-2.82564441271" />
<exchange-correlation>
<annotation oncvpsp-xc-code="-116133" oncvpsp-xc-type="libxc-interface" />
<libxc-info number-of-functionals="2">
<functional name="Perdew, Burke &amp; Ernzerhof SOL (GGA)" type="exchange"
 id="116" />
<functional name="Perdew, Burke &amp; Ernzerhof SOL (GGA)" type="correlation"
 id="133" />
</libxc-info>
</exchange-correlation>
<valence-configuration total-valence-charge="2">
<shell n="1" l="s" occupation="2" />
</valence-configuration>
</pseudo-atom-spec>
<grid npts="457">
<annotation type="sampled from oncvpsp log grid"
 recipe="r(i:1..N) = r1*exp(a*(i-1)) + r=0; resampled"
 recipe-cont="r1: scale; a: step" scale="0.250000000000E-03"
 step="0.119285708653E-01" delta="0.500000000000E-02" rmax="44.2383759443" />
<grid-data>
  0.000000000000E+00  5.051602385059E-03  1.009017932864E-02  1.513687797741E-02
  2.015434136011E-02  2.528123861035E-02  3.059754257067E-02  3.573001596412E-02
  4.073979579344E-02  4.590119295367E-02  5.110325760530E-02  5.622023872390E-02
  6.184958435691E-02  6.723576846129E-02  7.309100954492E-02  7.851398768163E-02
  8.433932298996E-02  8.952259714325E-02  9.502442176619E-02  1.008643741373E-01
  1.070632347034E-01  1.122955148451E-01  1.177835013976E-01  1.235396909718E-01
  1.295771908995E-01  1.359097490801E-01  1.425517852856E-01  1.477454782566E-01
  1.531283968246E-01  1.587074351836E-01  1.644897387087E-01  1.704827131076E-01
  1.766940339056E-01  1.831316562762E-01  1.898038252291E-01  1.967190861709E-01
  2.038862958488E-01  2.113146336947E-01  2.164166142107E-01  2.216417769442E-01
  2.269930960067E-01  2.324736173167E-01  2.380864603332E-01  2.438348198315E-01
  2.497219677215E-01  2.557512549101E-01  2.619261132087E-01  2.682500572860E-01
  2.747266866691E-01  2.813596877920E-01  2.881528360941E-01  2.951099981688E-01
  3.022351339645E-01  3.095322990390E-01  3.170056468670E-01  3.246594312049E-01
  3.324980085119E-01  3.405258404295E-01  3.487474963208E-01  3.571676558720E-01
  3.657911117553E-01  3.746227723576E-01  3.836676645734E-01  3.929309366668E-01
  4.024178612017E-01  4.121338380425E-01  4.220843974282E-01  4.271494101974E-01
  4.322752031198E-01  4.374625055572E-01  4.427120556239E-01  4.480246002914E-01
  4.534008954949E-01  4.588417062408E-01  4.643478067157E-01  4.699199803963E-01
  4.755590201610E-01  4.812657284030E-01  4.870409171438E-01  4.928854081495E-01
  4.988000330473E-01  5.047856334439E-01  5.108430610452E-01  5.169731777778E-01
  5.231768559111E-01  5.294549781820E-01  5.358084379202E-01  5.422381391752E-01
  5.487449968454E-01  5.553299368075E-01  5.619938960492E-01  5.687378228018E-01
  5.755626766754E-01  5.824694287955E-01  5.894590619410E-01  5.965325706843E-01
  6.036909615326E-01  6.109352530709E-01  6.182664761078E-01  6.256856738211E-01
  6.331939019069E-01  6.407922287298E-01  6.484817354746E-01  6.562635163003E-01
  6.641386784959E-01  6.721083426378E-01  6.801736427495E-01  6.883357264625E-01
  6.965957551800E-01  7.049549042422E-01  7.134143630931E-01  7.219753354502E-01
  7.306390394756E-01  7.394067079493E-01  7.482795884447E-01  7.572589435061E-01
  7.663460508281E-01  7.755422034381E-01  7.848487098793E-01  7.942668943979E-01
  8.037980971306E-01  8.134436742962E-01  8.232049983878E-01  8.330834583684E-01
  8.430804598688E-01  8.531974253873E-01  8.634357944919E-01  8.737970240258E-01
  8.842825883141E-01  8.948939793739E-01  9.056327071264E-01  9.165002996119E-01
  9.274983032072E-01  9.386282828457E-01  9.498918222399E-01  9.612905241068E-01
  9.728260103960E-01  9.844999225208E-01  9.963139215910E-01  1.008269688650E+00
  1.020368924914E+00  1.032613352013E+00  1.045004712237E+00  1.057544768784E+00
  1.070235306009E+00  1.083078129681E+00  1.096075067238E+00  1.109227968044E+00
  1.122538703661E+00  1.136009168105E+00  1.149641278122E+00  1.163436973460E+00
  1.177398217141E+00  1.191526995747E+00  1.205825319696E+00  1.220295223532E+00
  1.234938766215E+00  1.249758031409E+00  1.264755127786E+00  1.279932189319E+00
  1.295291375591E+00  1.310834872098E+00  1.326564890564E+00  1.342483669250E+00
  1.358593473281E+00  1.374896594961E+00  1.391395354100E+00  1.408092098349E+00
  1.424989203530E+00  1.442089073972E+00  1.459394142860E+00  1.476906872574E+00
  1.494629755045E+00  1.512565312105E+00  1.530716095851E+00  1.549084689001E+00
  1.567673705269E+00  1.586485789732E+00  1.605523619209E+00  1.624789902639E+00
  1.644287381471E+00  1.664018830049E+00  1.683987056009E+00  1.704194900681E+00
  1.724645239490E+00  1.745340982363E+00  1.766285074152E+00  1.787480495042E+00
  1.808930260982E+00  1.830637424114E+00  1.852605073203E+00  1.874836334082E+00
  1.897334370091E+00  1.920102382532E+00  1.943143611122E+00  1.966461334456E+00
  1.990058870469E+00  2.013939576915E+00  2.038106851838E+00  2.062564134060E+00
  2.087314903669E+00  2.112362682513E+00  2.137711034703E+00  2.163363567119E+00
  2.189323929925E+00  2.215595817084E+00  2.242182966889E+00  2.269089162491E+00
  2.296318232441E+00  2.323874051231E+00  2.351760539845E+00  2.379981666323E+00
  2.408541446319E+00  2.437443943675E+00  2.466693270999E+00  2.496293590251E+00
  2.526249113334E+00  2.556564102694E+00  2.587242871927E+00  2.618289786390E+00
  2.649709263826E+00  2.681505774992E+00  2.713683844292E+00  2.746248050424E+00
  2.779203027029E+00  2.812553463353E+00  2.846304104913E+00  2.880459754172E+00
  2.915025271222E+00  2.950005574477E+00  2.985405641371E+00  3.021230509067E+00
  3.057485275176E+00  3.094175098478E+00  3.131305199660E+00  3.168880862056E+00
  3.206907432400E+00  3.245390321589E+00  3.284335005448E+00  3.323747025514E+00
  3.363631989820E+00  3.403995573698E+00  3.444843520582E+00  3.486181642829E+00
  3.528015822543E+00  3.570352012414E+00  3.613196236563E+00  3.656554591401E+00
  3.700433246498E+00  3.744838445456E+00  3.789776506802E+00  3.835253824883E+00
  3.881276870782E+00  3.927852193231E+00  3.974986419550E+00  4.022686256585E+00
  4.070958491664E+00  4.119809993564E+00  4.169247713486E+00  4.219278686048E+00
  4.269910030281E+00  4.321148950644E+00  4.373002738052E+00  4.425478770908E+00
  4.478584516159E+00  4.532327530353E+00  4.586715460717E+00  4.641756046246E+00
  4.697457118801E+00  4.753826604227E+00  4.810872523477E+00  4.868602993759E+00
  4.927026229684E+00  4.986150544440E+00  5.045984350974E+00  5.106536163185E+00
  5.167814597144E+00  5.229828372309E+00  5.292586312777E+00  5.356097348530E+00
  5.420370516713E+00  5.485414962913E+00  5.551239942468E+00  5.617854821778E+00
  5.685269079639E+00  5.753492308595E+00  5.822534216298E+00  5.892404626894E+00
  5.963113482416E+00  6.034670844205E+00  6.107086894336E+00  6.180371937068E+00
  6.254536400313E+00  6.329590837116E+00  6.405545927162E+00  6.482412478288E+00
  6.560201428027E+00  6.638923845163E+00  6.718590931305E+00  6.799214022481E+00
  6.880804590751E+00  6.963374245840E+00  7.046934736790E+00  7.131497953631E+00
  7.217075929075E+00  7.303680840224E+00  7.391325010307E+00  7.480020910430E+00
  7.569781161355E+00  7.660618535292E+00  7.752545957715E+00  7.845576509208E+00
  7.939723427318E+00  8.035000108446E+00  8.131420109747E+00  8.228997151064E+00
  8.327745116877E+00  8.427678058280E+00  8.528810194979E+00  8.631155917319E+00
  8.734729788327E+00  8.839546545787E+00  8.945621104336E+00  9.052968557588E+00
  9.161604180279E+00  9.271543430442E+00  9.382801951608E+00  9.495395575027E+00
  9.609340321927E+00  9.724652405790E+00  9.841348234660E+00  9.959444413476E+00
  1.007895774644E+01  1.019990523939E+01  1.032230410227E+01  1.044617175149E+01
  1.057152581251E+01  1.069838412226E+01  1.082676473173E+01  1.095668590851E+01
  1.108816613941E+01  1.122122413309E+01  1.135587882268E+01  1.149214936856E+01
  1.163005516098E+01  1.176961582291E+01  1.191085121278E+01  1.205378142734E+01
  1.219842680447E+01  1.234480792612E+01  1.249294562123E+01  1.264286096869E+01
  1.279457530031E+01  1.294811020392E+01  1.310348752636E+01  1.326072937668E+01
  1.341985812920E+01  1.358089642675E+01  1.374386718387E+01  1.390879359008E+01
  1.407569911316E+01  1.424460750252E+01  1.441554279255E+01  1.458852930606E+01
  1.476359165773E+01  1.494075475762E+01  1.512004381471E+01  1.530148434049E+01
  1.548510215258E+01  1.567092337841E+01  1.585897445895E+01  1.604928215246E+01
  1.624187353828E+01  1.643677602074E+01  1.663401733299E+01  1.683362554099E+01
  1.703562904748E+01  1.724005659605E+01  1.744693727520E+01  1.765630052251E+01
  1.786817612878E+01  1.808259424232E+01  1.829958537323E+01  1.851918039771E+01
  1.874141056248E+01  1.896630748923E+01  1.919390317910E+01  1.942423001725E+01
  1.965732077746E+01  1.989320862679E+01  2.013192713031E+01  2.037351025587E+01
  2.061799237894E+01  2.086540828749E+01  2.111579318694E+01  2.136918270518E+01
  2.162561289764E+01  2.188512025242E+01  2.214774169545E+01  2.241351459579E+01
  2.268247677094E+01  2.295466649219E+01  2.323012249010E+01  2.350888395998E+01
  2.379099056750E+01  2.407648245431E+01  2.436540024376E+01  2.465778504669E+01
  2.495367846725E+01  2.525312260885E+01  2.555616008016E+01  2.586283400112E+01
  2.617318800913E+01  2.648726626524E+01  2.680511346043E+01  2.712677482195E+01
  2.745229611982E+01  2.778172367325E+01  2.811510435733E+01  2.845248560962E+01
  2.879391543694E+01  2.913944242218E+01  2.948911573124E+01  2.984298512002E+01
  3.020110094146E+01  3.056351415276E+01  3.093027632259E+01  3.130143963846E+01
  3.167705691412E+01  3.205718159709E+01  3.244186777626E+01  3.283117018957E+01
  3.322514423185E+01  3.362384596263E+01  3.402733211418E+01  3.443566009955E+01
  3.484888802075E+01  3.526707467700E+01  3.569027957312E+01  3.611856292800E+01
  3.655198568313E+01  3.699060951133E+01  3.743449682547E+01  3.788371078737E+01
  3.833831531682E+01  3.879837510062E+01  3.926395560183E+01  3.973512306905E+01
  4.021194454588E+01  4.069448788043E+01  4.118282173500E+01  4.167701559582E+01
  4.217713978297E+01  4.268326546036E+01  4.319546464589E+01  4.371381022164E+01
  4.423837594430E+01
</grid-data>
</grid>
<valence-charge total-charge="2" is-unscreening-charge="yes"
 rescaled-to-z-pseudo="no">
<radfunc>
<data npts="457">
  1.738962332408E+01  1.738790755721E+01  1.738277833071E+01  1.737422274072E+01
  1.736233132376E+01  1.734670210193E+01  1.732679394023E+01  1.730401261578E+01
  1.727841688199E+01  1.724859417053E+01  1.721501236923E+01  1.717855151254E+01
  1.713454243791E+01  1.708864486865E+01  1.703458791594E+01  1.698069522023E+01
  1.691875310242E+01  1.686015398618E+01  1.679441149304E+01  1.672069454727E+01
  1.663808598891E+01  1.656492218955E+01  1.648486215537E+01  1.639730266478E+01
  1.630159746525E+01  1.619705630083E+01  1.608294444382E+01  1.599061279903E+01
  1.589211562665E+01  1.578709494452E+01  1.567518014843E+01  1.555598891091E+01
  1.542912836051E+01  1.529419658102E+01  1.515078447255E+01  1.499847801885E+01
  1.483686100747E+01  1.466551825024E+01  1.454568356428E+01  1.442122420405E+01
  1.429202307442E+01  1.415796622328E+01  1.401894360430E+01  1.387484990206E+01
  1.372558542086E+01  1.357105703796E+01  1.341117922152E+01  1.324587511271E+01
  1.307507767045E+01  1.289873087655E+01  1.271679099757E+01  1.252922789863E+01
  1.233602640284E+01  1.213718768851E+01  1.193273071443E+01  1.172269366171E+01
  1.150713537861E+01  1.128613681249E+01  1.105980241104E+01  1.082826147232E+01
  1.059166942104E+01  1.035020898612E+01  1.010409125243E+01  9.853556557580E+00
  9.598875202966E+00  9.340347946816E+00  9.078306246239E+00  8.946079449818E+00
  8.813112214932E+00  8.679454536998E+00  8.545158263697E+00  8.410277064196E+00
  8.274866392244E+00  8.138983442947E+00  8.002687103037E+00  7.866037894491E+00
  7.729097911350E+00  7.591930749637E+00  7.454601430294E+00  7.317176315073E+00
  7.179723015387E+00  7.042310294113E+00  6.905007960418E+00  6.767886757701E+00
  6.631018244777E+00  6.494474670503E+00  6.358328842060E+00  6.222653987172E+00
  6.087523610575E+00  5.953011345125E+00  5.819190797954E+00  5.686135392145E+00
  5.553918204451E+00  5.422611799629E+00  5.292288061989E+00  5.163018024837E+00
  5.034871698493E+00  4.907917897644E+00  4.782224068780E+00  4.657856118556E+00
  4.534878243869E+00  4.413352764536E+00  4.293339959429E+00  4.174897906930E+00
  4.058082330606E+00  3.942946450967E+00  3.829540844153E+00  3.717913308425E+00
  3.608108739234E+00  3.500169013684E+00  3.394132885093E+00  3.290035888373E+00
  3.187910256831E+00  3.087784850991E+00  2.989685099917E+00  2.893632955482E+00
  2.799646859936E+00  2.707741727048E+00  2.617928937010E+00  2.530216345222E+00
  2.444608304985E+00  2.361105704030E+00  2.279706014776E+00  2.200403358074E+00
  2.123188580167E+00  2.048049342499E+00  1.974970223962E+00  1.903932835087E+00
  1.834915943650E+00  1.767895611129E+00  1.702845339362E+00  1.639736226774E+00
  1.578537133479E+00  1.519214854529E+00  1.461734300588E+00  1.406058685245E+00
  1.352149718181E+00  1.299967803363E+00  1.249472241390E+00  1.200621435097E+00
  1.153373097442E+00  1.107684460643E+00  1.063512485461E+00  1.020814069405E+00
  9.795462525447E-01  9.396664195030E-01  9.011324960345E-01  8.639031384943E-01
  8.279379143280E-01  7.931974715870E-01  7.596436953401E-01  7.272398487451E-01
  6.959506964679E-01  6.657426081036E-01  6.365836392781E-01  6.084435881992E-01
  5.812940255939E-01  5.551082962288E-01  5.298614905567E-01  5.055302793031E-01
  4.820923028443E-01  4.595253198530E-01  4.378072261769E-01  4.169160614665E-01
  3.968300240661E-01  3.775274854338E-01  3.589870040806E-01  3.411873390196E-01
  3.241074627176E-01  3.077265735421E-01  2.920241076973E-01  2.769797506462E-01
  2.625734480126E-01  2.487854159619E-01  2.355961510581E-01  2.229864395946E-01
  2.109373664000E-01  1.994303231174E-01  1.884470159579E-01  1.779694729300E-01
  1.679800505452E-01  1.584614400022E-01  1.493966728511E-01  1.407691261404E-01
  1.325625270479E-01  1.247609569996E-01  1.173488552779E-01  1.103110221223E-01
  1.036326213259E-01  9.729918233027E-02  9.129660182282E-02  8.561114483969E-02
  8.022944537905E-02  7.513850652906E-02  7.032570011604E-02  6.577876587866E-02
  6.148581017507E-02  5.743530423059E-02  5.361608193464E-02  5.001733719661E-02
  4.662862087153E-02  4.343983726769E-02  4.044124024926E-02  3.762342894869E-02
  3.497734310451E-02  3.249425804147E-02  3.016577931140E-02  2.798383701383E-02
  2.594067981700E-02  2.402886870019E-02  2.224127043983E-02  2.057105086198E-02
  1.901166788455E-02  1.755686437321E-02  1.620066083476E-02  1.493734797233E-02
  1.376147912624E-02  1.266786262453E-02  1.165155406642E-02  1.070784856176E-02
  9.832272948548E-03  9.020578010043E-03  8.268730711872E-03  7.572906478651E-03
  6.929481528411E-03  6.335025281983E-03  5.786292863221E-03  5.280217704635E-03
  4.813904271717E-03  4.384620917874E-03  3.989792880587E-03  3.626995428096E-03
  3.293947164669E-03  2.988503501247E-03  2.708650297160E-03  2.452497677450E-03
  2.218274029357E-03  2.004320180551E-03  1.809083760848E-03  1.631113748347E-03
  1.469055200226E-03  1.321644167805E-03  1.187702794946E-03  1.066134598355E-03
  9.559199279476E-04  8.561116050845E-04  7.658307361656E-04  6.842626988160E-04
  6.106532976765E-04  5.443050866231E-04  4.845738540804E-04  4.308652679587E-04
  3.826316766265E-04  3.393690622290E-04  3.006141425742E-04  2.659416177271E-04
  2.349615573810E-04  2.073169250125E-04  1.826812347656E-04  1.607563369589E-04
  1.412703280655E-04  1.239755809710E-04  1.086468912876E-04  9.507973547123E-05
  8.308863647515E-05  7.250563266333E-05  6.317884570725E-05  5.497114320146E-05
  4.775889175374E-05  4.143079633695E-05  3.588682173233E-05  3.103719194645E-05
  2.680146354725E-05  2.310766893819E-05  1.989152567224E-05  1.709570799966E-05
  1.466917694390E-05  1.256656530832E-05  1.074761413093E-05  9.176657225649E-06
  7.822150574311E-06  6.656243463561E-06  5.654388394172E-06  4.794986925571E-06
  4.059068755270E-06  3.430001470161E-06  2.893228543656E-06  2.436033288624E-06
  2.047326610251E-06  1.717456534750E-06  1.438037618673E-06  1.201798468942E-06
  1.002445725106E-06  8.345429725187E-07  6.934031676440E-07  5.749932644063E-07
  4.758498331905E-07  3.930045616020E-07  3.239186183964E-07  2.664249490165E-07
  2.186776529639E-07  1.791076698312E-07  1.463840723270E-07  1.193803311517E-07
  9.714497827945E-08  7.887615223848E-08  6.389956154449E-08  5.164945072729E-08
  4.165219761611E-08  3.351221092624E-08  2.689983394573E-08  2.154099347684E-08
  1.720836336836E-08  1.371383920084E-08  1.090214517452E-08  8.645416208216E-09
  6.838617890036E-09  5.395684421494E-09  4.246270250629E-09  3.333024872561E-09
  2.609312452936E-09  2.037308655863E-09  1.586416477920E-09  1.231951137880E-09
  9.540512719216E-10  7.367799505573E-10  5.673844707506E-10  4.356885800459E-10
  3.335948456291E-10  2.546783683121E-10  1.938560300297E-10  1.471180168119E-10
  1.113105338618E-10  8.396047563498E-11  6.313437627048E-11  4.732528374608E-11
  3.536230935258E-11  2.633853283439E-11  1.955371945469E-11  1.446895099740E-11
  1.067080871156E-11  7.843188911711E-12  5.745204883795E-12  4.193886631662E-12
  3.050768130565E-12  2.211398051491E-12  1.597246810719E-12  1.149491818536E-12
  8.242322900822E-13  5.888221752830E-13  4.190734602353E-13  2.971310766061E-13
  0.000000000000E+00  0.000000000000E+00  0.000000000000E+00  0.000000000000E+00
  0.000000000000E+00  0.000000000000E+00  0.000000000000E+00  0.000000000000E+00
  0.000000000000E+00  0.000000000000E+00  0.000000000000E+00  0.000000000000E+00
  0.000000000000E+00  0.000000000000E+00  0.000000000000E+00  0.000000000000E+00
  0.000000000000E+00  0.000000000000E+00  0.000000000000E+00  0.000000000000E+00
  0.000000000000E+00  0.000000000000E+00  0.000000000000E+00  0.000000000000E+00
  0.000000000000E+00  0.000000000000E+00  0.000000000000E+00  0.000000000000E+00
  0.000000000000E+00  0.000000000000E+00  0.000000000000E+00  0.000000000000E+00
  0.000000000000E+00  0.000000000000E+00  0.000000000000E+00  0.000000000000E+00
  0.000000000000E+00  0.000000000000E+00  0.000000000000E+00  0.000000000000E+00
  0.000000000000E+00  0.000000000000E+00  0.000000000000E+00  0.000000000000E+00
  0.000000000000E+00  0.000000000000E+00  0.000000000000E+00  0.000000000000E+00
  0.000000000000E+00  0.000000000000E+00  0.000000000000E+00  0.000000000000E+00
  0.000000000000E+00  0.000000000000E+00  0.000000000000E+00  0.000000000000E+00
  0.000000000000E+00  0.000000000000E+00  0.000000000000E+00  0.000000000000E+00
  0.000000000000E+00  0.000000000000E+00  0.000000000000E+00  0.000000000000E+00
  0.000000000000E+00  0.000000000000E+00  0.000000000000E+00  0.000000000000E+00
  0.000000000000E+00  0.000000000000E+00  0.000000000000E+00  0.000000000000E+00
  0.000000000000E+00  0.000000000000E+00  0.000000000000E+00  0.000000000000E+00
  0.000000000000E+00  0.000000000000E+00  0.000000000000E+00  0.000000000000E+00
  0.000000000000E+00  0.000000000000E+00  0.000000000000E+00  0.000000000000E+00
  0.000000000000E+00  0.000000000000E+00  0.000000000000E+00  0.000000000000E+00
  0.000000000000E+00  0.000000000000E+00  0.000000000000E+00  0.000000000000E+00
  0.000000000000E+00  0.000000000000E+00  0.000000000000E+00  0.000000000000E+00
  0.000000000000E+00  0.000000000000E+00  0.000000000000E+00  0.000000000000E+00
  0.000000000000E+00  0.000000000000E+00  0.000000000000E+00  0.000000000000E+00
  0.000000000000E+00
</data>
</radfunc>
</valence-charge>
<semilocal-potentials set="lj">
<slps n="1" l="s" j="0.5" rc="1.26475512779" eref="-0.569578691527">
<radfunc>
<data npts="290">
 -8.313201644266E+00 -8.312805100491E+00 -8.311619219477E+00 -8.309640517529E+00
 -8.306889029726E+00 -8.303270389184E+00 -8.298657279795E+00 -8.293373214318E+00
 -8.287429727779E+00 -8.280495834811E+00 -8.272676457612E+00 -8.264172871401E+00
 -8.253889569648E+00 -8.243142400831E+00 -8.230454889598E+00 -8.217773647505E+00
 -8.203158215488E+00 -8.189291773602E+00 -8.173688536093E+00 -8.156133733119E+00
 -8.136386762852E+00 -8.118830869239E+00 -8.099547749257E+00 -8.078370727619E+00
 -8.055117713575E+00 -8.029589915170E+00 -8.001570477556E+00 -7.978779355797E+00
 -7.954346779455E+00 -7.928158348664E+00 -7.900092278456E+00 -7.870019018256E+00
 -7.837800869813E+00 -7.803291608068E+00 -7.766336110680E+00 -7.726770003397E+00
 -7.684419330271E+00 -7.639100259845E+00 -7.607143080661E+00 -7.573720620844E+00
 -7.538770825872E+00 -7.502229585879E+00 -7.464030740873E+00 -7.424106098363E+00
 -7.382385465416E+00 -7.338796697463E+00 -7.293265766400E+00 -7.245716850880E+00
 -7.196072451982E+00 -7.144253537829E+00 -7.090179721085E+00 -7.033769473653E+00
 -6.974940383326E+00 -6.913609457575E+00 -6.849693480045E+00 -6.783109425830E+00
 -6.713774941952E+00 -6.641608899866E+00 -6.566532027184E+00 -6.488467626014E+00
 -6.407342385519E+00 -6.323087296335E+00 -6.235638674318E+00 -6.144939300795E+00
 -6.050939685851E+00 -5.953599460296E+00 -5.852888900631E+00 -5.801263773708E+00
 -5.748790589630E+00 -5.695469388856E+00 -5.641301212903E+00 -5.586288167718E+00
 -5.530433488991E+00 -5.473741609316E+00 -5.416218227106E+00 -5.357870377124E+00
 -5.298706502489E+00 -5.238736527986E+00 -5.177971934484E+00 -5.116425834231E+00
 -5.054113046795E+00 -4.991050175348E+00 -4.927255683000E+00 -4.862749968832E+00
 -4.797555443264E+00 -4.731696602336E+00 -4.665200100471E+00 -4.598094821241E+00
 -4.530411945625E+00 -4.462185017212E+00 -4.393450003773E+00 -4.324245354582E+00
 -4.254612052845E+00 -4.184593662556E+00 -4.114236369072E+00 -4.043589012661E+00
 -3.972703114272E+00 -3.901632892715E+00 -3.830435272453E+00 -3.759169881149E+00
 -3.687899036123E+00 -3.616687718820E+00 -3.545603536397E+00 -3.474716669503E+00
 -3.404099805296E+00 -3.333828054733E+00 -3.263978853130E+00 -3.194631842949E+00
 -3.125868737739E+00 -3.057773166101E+00 -2.990430494489E+00 -2.923927627585E+00
 -2.858352784908E+00 -2.793795252200E+00 -2.730345106057E+00 -2.668092910097E+00
 -2.607129380873E+00 -2.547545021552E+00 -2.489429721264E+00 -2.432872317870E+00
 -2.377960121779E+00 -2.324778398334E+00 -2.273409806246E+00 -2.223933789568E+00
 -2.176425920760E+00 -2.130957192661E+00 -2.087593257482E+00 -2.046393611479E+00
 -2.007410724700E+00 -1.970689116167E+00 -1.936264376111E+00 -1.904162138452E+00
 -1.874397008609E+00 -1.846971454019E+00 -1.821874667381E+00 -1.799081415676E+00
 -1.778550891431E+00 -1.760225586419E+00 -1.744030212051E+00 -1.729870694963E+00
 -1.717633280694E+00 -1.707183782751E+00 -1.698367018759E+00 -1.691006479500E+00
 -1.684904280240E+00 -1.679841446744E+00 -1.675578590751E+00 -1.671857031081E+00
 -1.668400416829E+00 -1.664916908265E+00 -1.661101968844E+00 -1.656641818140E+00
 -1.651217590420E+00 -1.644510236894E+00 -1.636206201209E+00 -1.626003854984E+00
 -1.613621121074E+00 -1.598803803045E+00 -1.581327379976E+00 -1.562589369809E+00
 -1.544063009701E+00 -1.525753524991E+00 -1.507661474469E+00 -1.489783925609E+00
 -1.472118371210E+00 -1.454662294743E+00 -1.437413212046E+00 -1.420368668404E+00
 -1.403526238212E+00 -1.386883524619E+00 -1.370438159195E+00 -1.354187801592E+00
 -1.338130139211E+00 -1.322262886878E+00 -1.306583786512E+00 -1.291090606814E+00
 -1.275781142945E+00 -1.260653216214E+00 -1.245704673772E+00 -1.230933388306E+00
 -1.216337257738E+00 -1.201914204926E+00 -1.187662177373E+00 -1.173579146935E+00
 -1.159663109533E+00 -1.145912084871E+00 -1.132324116154E+00 -1.118897269814E+00
 -1.105629635231E+00 -1.092519324465E+00 -1.079564471988E+00 -1.066763234417E+00
 -1.054113790252E+00 -1.041614339618E+00 -1.029263104007E+00 -1.017058326023E+00
 -1.004998269133E+00 -9.930812174130E-01 -9.813054753094E-01 -9.696693673892E-01
 -9.581712381015E-01 -9.468094515387E-01 -9.355823912006E-01 -9.244884597616E-01
 -9.135260788398E-01 -9.026936887690E-01 -8.919897483738E-01 -8.814127347467E-01
 -8.709611430284E-01 -8.606334861907E-01 -8.504282948217E-01 -8.403441169147E-01
 -8.303795176587E-01 -8.205330792329E-01 -8.108034006030E-01 -8.011890973207E-01
 -7.916888013262E-01 -7.823011607531E-01 -7.730248397361E-01 -7.638585182218E-01
 -7.548008917818E-01 -7.458506714283E-01 -7.370065834332E-01 -7.282673691484E-01
 -7.196317848295E-01 -7.110986014618E-01 -7.026666045880E-01 -6.943345941391E-01
 -6.861013842663E-01 -6.779658031756E-01 -6.699266929646E-01 -6.619829094603E-01
 -6.541333220596E-01 -6.463768135710E-01 -6.387122800581E-01 -6.311386306846E-01
 -6.236547875611E-01 -6.162596855930E-01 -6.089522723306E-01 -6.017315078198E-01
 -5.945963644547E-01 -5.875458268321E-01 -5.805788916061E-01 -5.736945673459E-01
 -5.668918743934E-01 -5.601698447238E-01 -5.535275218062E-01 -5.469639604668E-01
 -5.404782267534E-01 -5.340693978006E-01 -5.277365616979E-01 -5.214788173583E-01
 -5.152952743887E-01 -5.091850529622E-01 -5.031472836912E-01 -4.971811075031E-01
 -4.912856755163E-01 -4.854601489191E-01 -4.797036988488E-01 -4.740155062730E-01
 -4.683947618728E-01 -4.628406659261E-01 -4.573524281940E-01 -4.519292678074E-01
 -4.465704131555E-01 -4.412751017758E-01 -4.360425802452E-01 -4.308721040726E-01
 -4.257629375928E-01 -4.207143538616E-01 -4.157256345525E-01 -4.107960698542E-01
 -4.059249583699E-01 -4.011116070172E-01 -3.963553309297E-01 -3.916554533596E-01
 -3.870113055816E-01 -3.824222267977E-01 -3.778875640433E-01 -3.734066720946E-01
 -3.689789133767E-01 -3.646036578732E-01 -3.602802830364E-01 -3.560081736994E-01
 -3.517867219881E-01 -3.476153272354E-01 -3.434933958954E-01 -3.394203414597E-01
 -3.353955843733E-01 -3.314185519531E-01
</data>
</radfunc>
</slps>
<slps n="2" l="p" j="1.5" rc="1.13600916810" eref="0.499999997625E-01">
<radfunc>
<data npts="290">
 -6.459559562729E+00 -6.459130224674E+00 -6.457846621110E+00 -6.455705920686E+00
 -6.452731352055E+00 -6.448823192943E+00 -6.443847363573E+00 -6.438156572215E+00
 -6.431766747180E+00 -6.424327019495E+00 -6.415956389146E+00 -6.406876326791E+00
 -6.395927826983E+00 -6.384522676556E+00 -6.371107157522E+00 -6.357750804906E+00
 -6.342422127540E+00 -6.327942851448E+00 -6.311723966455E+00 -6.293569571534E+00
 -6.273265110096E+00 -6.255316856996E+00 -6.235713985483E+00 -6.214318936290E+00
 -6.190985703732E+00 -6.165559929433E+00 -6.137879148764E+00 -6.115536636264E+00
 -6.091755709680E+00 -6.066459927576E+00 -6.039571071271E+00 -6.011009448413E+00
 -5.980694252684E+00 -5.948543982656E+00 -5.914476921857E+00 -5.878411680752E+00
 -5.840267799534E+00 -5.799966408346E+00 -5.771862268737E+00 -5.742743177730E+00
 -5.712587875780E+00 -5.681375912582E+00 -5.649087751181E+00 -5.615704870757E+00
 -5.581209866356E+00 -5.545586543622E+00 -5.508820006283E+00 -5.470896733953E+00
 -5.431804647506E+00 -5.391533159114E+00 -5.350073203831E+00 -5.307417249474E+00
 -5.263559281510E+00 -5.218494759692E+00 -5.172220543375E+00 -5.124734782751E+00
 -5.076036773826E+00 -5.026126775676E+00 -4.975005789653E+00 -4.922675301564E+00
 -4.869136989644E+00 -4.814392403358E+00 -4.758442620731E+00 -4.701287895082E+00
 -4.642927305702E+00 -4.583358431191E+00 -4.522577068787E+00 -4.491729851332E+00
 -4.460577027977E+00 -4.429117498025E+00 -4.397350031891E+00 -4.365273276690E+00
 -4.332885765138E+00 -4.300185928165E+00 -4.267172111630E+00 -4.233842597528E+00
 -4.200195630119E+00 -4.166229447366E+00 -4.131942318102E+00 -4.097332585304E+00
 -4.062398715859E+00 -4.027139357162E+00 -3.991553400854E+00 -3.955640053963E+00
 -3.919398917667E+00 -3.882830073786E+00 -3.845934179084E+00 -3.808712567302E+00
 -3.771167358789E+00 -3.733301577407E+00 -3.695119274295E+00 -3.656625657862E+00
 -3.617827229237E+00 -3.578731922169E+00 -3.539349246181E+00 -3.499690431527E+00
 -3.459768574266E+00 -3.419598779498E+00 -3.379198300538E+00 -3.338586671544E+00
 -3.297785830800E+00 -3.256820231637E+00 -3.215716937657E+00 -3.174505698720E+00
 -3.133219003933E+00 -3.091892107679E+00 -3.050563024629E+00 -3.009272489579E+00
 -2.968063877984E+00 -2.926983083125E+00 -2.886078346072E+00 -2.845400034879E+00
 -2.805000369909E+00 -2.764933092752E+00 -2.725253076954E+00 -2.686015879636E+00
 -2.647277234203E+00 -2.609092485542E+00 -2.571515970561E+00 -2.534600348474E+00
 -2.498395887023E+00 -2.462949712643E+00 -2.428305034618E+00 -2.394500355271E+00
 -2.361568680341E+00 -2.329536745723E+00 -2.298424278681E+00 -2.268243313436E+00
 -2.238997582505E+00 -2.210682006385E+00 -2.183282304850E+00 -2.156774753373E+00
 -2.131126107685E+00 -2.106293718355E+00 -2.082225855246E+00 -2.058862258826E+00
 -2.036134931468E+00 -2.013969177035E+00 -1.992284891190E+00 -1.970998098087E+00
 -1.950022721265E+00 -1.929272568055E+00 -1.908663497576E+00 -1.888115732839E+00
 -1.867556267477E+00 -1.846921307896E+00 -1.826158682521E+00 -1.805230141668E+00
 -1.784113464964E+00 -1.762804288750E+00 -1.741526624802E+00 -1.720516766292E+00
 -1.699777550704E+00 -1.679316074325E+00 -1.659138601573E+00 -1.639250145354E+00
 -1.619654431172E+00 -1.600353792878E+00 -1.581341812449E+00 -1.562589369809E+00
 -1.544063009701E+00 -1.525753524991E+00 -1.507661474469E+00 -1.489783925609E+00
 -1.472118371210E+00 -1.454662294743E+00 -1.437413212046E+00 -1.420368668404E+00