<?xml version="1.0" encoding="UTF-8" ?>
<psml version="1.1" energy_unit="hartree" length_unit="bohr"
 uuid="4974e330-53a0-11e8-6d99-d2e77fda3793"
 xmlns="http://esl.cecam.org/PSML/ns/1.1">
<provenance creator="ONCVPSP-3.3.0+psml-3.3.0-73 (fully-relativistic)"
 date="2018-05-09">
<annotation action="semilocal-pseudopotential-generation"
 action-cont="projectors-generation" />
<input-file name="oncvpsp-input">
<![CDATA[# atsym z nc nv iexc psfile
Ne 10 1 2 -116133 upf
# n l f
1 0 2.0
2 0 2.0
2 1 6.0
# lmax
1
# l rc ep ncon nbas qcut
0 1.3 0.0 4 7 9.0
1 1.5 0.0 4 7 8.8
# lloc lpopt rc5 dvloc0
4 5 1.3 0.0
# l nproj debl
0 2 1.5
1 2 1.5
# icmod fcfact
0 0.05
# epsh1 epsh2 depsh
-12.0 12.0 0.02
# rlmax drl
4.0 0.01
 0
]]>
</input-file>
</provenance>
<pseudo-atom-spec atomic-label="Ne" atomic-number="10" z-pseudo="8"
 flavor="Hamann&apos;s oncvpsp" relativity="dirac" spin-dft="no"
 core-corrections="no">
<annotation pseudo-energy="-33.8446219254" />
<exchange-correlation>
<annotation oncvpsp-xc-code="-116133" oncvpsp-xc-type="libxc-interface" />
<libxc-info number-of-functionals="2">
<functional name="Perdew, Burke &amp; Ernzerhof SOL (GGA)" type="exchange"
 id="116" />
<functional name="Perdew, Burke &amp; Ernzerhof SOL (GGA)" type="correlation"
 id="133" />
</libxc-info>
</exchange-correlation>
<valence-configuration total-valence-charge="8">
<shell n="2" l="s" occupation="2" />
<shell n="2" l="p" occupation="6" />
</valence-configuration>
</pseudo-atom-spec>
<grid npts="457">
<annotation type="sampled from oncvpsp log grid"
 recipe="r(i:1..N) = r1*exp(a*(i-1)) + r=0; resampled"
 recipe-cont="r1: scale; a: step" scale="0.500000000000E-04"
 step="0.119285708653E-01" delta="0.500000000000E-02" rmax="44.2790565342" />
<grid-data>
  0.000000000000E+00  5.056247722070E-03  1.009945802476E-02  1.515079750118E-02
  2.017287482746E-02  2.530448665413E-02  3.062567936492E-02  3.576287246250E-02
  4.077725916977E-02  4.594340263175E-02  5.115025098203E-02  5.627193755841E-02
  6.190645980780E-02  6.729759692282E-02  7.315822235107E-02  7.858618733336E-02
  8.441687948565E-02  8.960492005827E-02  9.511180403221E-02  1.009571266888E-01
  1.071616875840E-01  1.123987792098E-01  1.178918123882E-01  1.236532952216E-01
  1.296963470949E-01  1.360347285499E-01  1.426828726186E-01  1.478813415899E-01
  1.532692101656E-01  1.588533788796E-01  1.646409996776E-01  1.706394850775E-01
  1.768565176628E-01  1.833000599224E-01  1.899783644480E-01  1.968999845042E-01
  2.040737849828E-01  2.115089537568E-01  2.166156259363E-01  2.218455936089E-01
  2.272018336210E-01  2.326873946919E-01  2.383053991494E-01  2.440590447064E-01
  2.499516062818E-01  2.559864378639E-01  2.621669744197E-01  2.684967338501E-01
  2.749793189921E-01  2.816184196699E-01  2.884178147944E-01  2.953813745148E-01
  3.025130624211E-01  3.098169378002E-01  3.172971579464E-01  3.249579805279E-01
  3.328037660097E-01  3.408389801363E-01  3.490681964727E-01  3.574960990083E-01
  3.661274848228E-01  3.749672668164E-01  3.840204765064E-01  3.932922668911E-01
  4.027879153830E-01  4.125128268120E-01  4.224725365025E-01  4.275422069405E-01
  4.326727134238E-01  4.378647859849E-01  4.431191634167E-01  4.484365933777E-01
  4.538178324983E-01  4.592636464882E-01  4.647748102461E-01  4.703521079691E-01
  4.759963332647E-01  4.817082892639E-01  4.874887887350E-01  4.933386541998E-01
  4.992587180502E-01  5.052498226668E-01  5.113128205389E-01  5.174485743853E-01
  5.236579572779E-01  5.299418527653E-01  5.363011549985E-01  5.427367688584E-01
  5.492496100847E-01  5.558406054058E-01  5.625106926706E-01  5.692608209827E-01
  5.760919508345E-01  5.830050542445E-01  5.900011148954E-01  5.970811282742E-01
  6.042461018134E-01  6.114970550352E-01  6.188350196956E-01  6.262610399320E-01
  6.337761724112E-01  6.413814864801E-01  6.490780643179E-01  6.568670010897E-01
  6.647494051028E-01  6.727263979640E-01  6.807991147396E-01  6.889687041164E-01
  6.972363285658E-01  7.056031645086E-01  7.140704024827E-01  7.226392473125E-01
  7.313109182803E-01  7.400866492996E-01  7.489676890912E-01  7.579553013603E-01
  7.670507649766E-01  7.762553741564E-01  7.855704386462E-01  7.949972839100E-01
  8.045372513169E-01  8.141916983327E-01  8.239619987127E-01  8.338495426973E-01
  8.438557372096E-01  8.539820060561E-01  8.642297901288E-01  8.746005476104E-01
  8.850957541817E-01  8.957169032319E-01  9.064655060706E-01  9.173430921435E-01
  9.283512092492E-01  9.394914237602E-01  9.507653208453E-01  9.621745046955E-01
  9.737205987518E-01  9.854052459368E-01  9.972301088881E-01  1.009196870195E+00
  1.021307232637E+00  1.033562919429E+00  1.045965674462E+00  1.058517262555E+00
  1.071219469706E+00  1.084074103343E+00  1.097082992583E+00  1.110247988494E+00
  1.123570964356E+00  1.137053815928E+00  1.150698461719E+00  1.164506843260E+00
  1.178480925379E+00  1.192622696483E+00  1.206934168841E+00  1.221417378867E+00
  1.236074387414E+00  1.250907280063E+00  1.265918167423E+00  1.281109185432E+00
  1.296482495658E+00  1.312040285605E+00  1.327784769033E+00  1.343718186261E+00
  1.359842804496E+00  1.376160918150E+00  1.392674849168E+00  1.409386947358E+00
  1.426299590726E+00  1.443415185815E+00  1.460736168045E+00  1.478265002061E+00
  1.496004182086E+00  1.513956232271E+00  1.532123707058E+00  1.550509191543E+00
  1.569115301842E+00  1.587944685464E+00  1.607000021689E+00  1.626284021949E+00
  1.645799430213E+00  1.665549023375E+00  1.685535611656E+00  1.705762038996E+00
  1.726231183464E+00  1.746945957665E+00  1.767909309157E+00  1.789124220867E+00
  1.810593711518E+00  1.832320836056E+00  1.854308686088E+00  1.876560390322E+00
  1.899079115005E+00  1.921868064385E+00  1.944930481158E+00  1.968269646932E+00
  1.991888882695E+00  2.015791549288E+00  2.039981047879E+00  2.064460820454E+00
  2.089234350299E+00  2.114305162503E+00  2.139676824453E+00  2.165352946346E+00
  2.191337181702E+00  2.217633227883E+00  2.244244826617E+00  2.271175764537E+00
  2.298429873711E+00  2.326011032196E+00  2.353923164582E+00  2.382170242557E+00
  2.410756285468E+00  2.439685360893E+00  2.468961585224E+00  2.498589124247E+00
  2.528572193738E+00  2.558915060062E+00  2.589622040783E+00  2.620697505273E+00
  2.652145875336E+00  2.683971625840E+00  2.716179285350E+00  2.748773436774E+00
  2.781758718015E+00  2.815139822632E+00  2.848921500503E+00  2.883108558509E+00
  2.917705861211E+00  2.952718331546E+00  2.988150951524E+00  3.024008762943E+00
  3.060296868098E+00  3.097020430515E+00  3.134184675681E+00  3.171794891790E+00
  3.209856430491E+00  3.248374707657E+00  3.287355204149E+00  3.326803466599E+00
  3.366725108198E+00  3.407125809496E+00  3.448011319210E+00  3.489387455041E+00
  3.531260104501E+00  3.573635225755E+00  3.616518848464E+00  3.659917074646E+00
  3.703836079541E+00  3.748282112496E+00  3.793261497846E+00  3.838780635820E+00
  3.884846003450E+00  3.931464155491E+00  3.978641725357E+00  4.026385426062E+00
  4.074702051174E+00  4.123598475788E+00  4.173081657498E+00  4.223158637388E+00
  4.273836541036E+00  4.325122579529E+00  4.377024050483E+00  4.429548339089E+00
  4.482702919158E+00  4.536495354188E+00  4.590933298438E+00  4.646024498020E+00
  4.701776791996E+00  4.758198113500E+00  4.815296490862E+00  4.873080048752E+00
  4.931557009337E+00  4.990735693449E+00  5.050624521770E+00  5.111232016032E+00
  5.172566800224E+00  5.234637601827E+00  5.297453253049E+00  5.361022692085E+00
  5.425354964390E+00  5.490459223963E+00  5.556344734651E+00  5.623020871466E+00
  5.690497121924E+00  5.758783087387E+00  5.827888484436E+00  5.897823146249E+00
  5.968597024004E+00  6.040220188292E+00  6.112702830551E+00  6.186055264518E+00
  6.260287927692E+00  6.335411382825E+00  6.411436319419E+00  6.488373555252E+00
  6.566234037915E+00  6.645028846370E+00  6.724769192526E+00  6.805466422836E+00
  6.887132019910E+00  6.969777604149E+00  7.053414935399E+00  7.138055914624E+00
  7.223712585599E+00  7.310397136626E+00  7.398121902266E+00  7.486899365093E+00
  7.576742157474E+00  7.667663063364E+00  7.759675020124E+00  7.852791120366E+00
  7.947024613810E+00  8.042388909176E+00  8.138897576086E+00  8.236564346999E+00
  8.335403119163E+00  8.435427956593E+00  8.536653092072E+00  8.639092929177E+00
  8.742762044327E+00  8.847675188859E+00  8.953847291125E+00  9.061293458619E+00
  9.170028980122E+00  9.280069327884E+00  9.391430159818E+00  9.504127321736E+00
  9.618176849597E+00  9.733594971792E+00  9.850398111454E+00  9.968602888791E+00
  1.008822612346E+01  1.020928483694E+01  1.033179625498E+01  1.045577781004E+01
  1.058124714376E+01  1.070822210949E+01  1.083672077480E+01  1.096676142410E+01
  1.109836256119E+01  1.123154291192E+01  1.136632142686E+01  1.150271728399E+01
  1.164074989140E+01  1.178043889009E+01  1.192180415677E+01  1.206486580665E+01
  1.220964419633E+01  1.235615992669E+01  1.250443384581E+01  1.265448705196E+01
  1.280634089658E+01  1.296001698734E+01  1.311553719119E+01  1.327292363748E+01
  1.343219872113E+01  1.359338510579E+01  1.375650572706E+01  1.392158379578E+01
  1.408864280133E+01  1.425770651495E+01  1.442879899313E+01  1.460194458104E+01
  1.477716791602E+01  1.495449393101E+01  1.513394785818E+01  1.531555523248E+01
  1.549934189527E+01  1.568533399801E+01  1.587355800599E+01  1.606404070206E+01
  1.625680919049E+01  1.645189090077E+01  1.664931359158E+01  1.684910535468E+01
  1.705129461894E+01  1.725591015436E+01  1.746298107622E+01  1.767253684913E+01
  1.788460729132E+01  1.809922257882E+01  1.831641324976E+01  1.853621020876E+01
  1.875864473126E+01  1.898374846804E+01  1.921155344965E+01  1.944209209105E+01
  1.967539719614E+01  1.991150196250E+01  2.015043998605E+01  2.039224526588E+01
  2.063695220907E+01  2.088459563558E+01  2.113521078321E+01  2.138883331260E+01
  2.164549931236E+01  2.190524530410E+01  2.216810824775E+01  2.243412554673E+01
  2.270333505329E+01  2.297577507393E+01  2.325148437481E+01  2.353050218731E+01
  2.381286821356E+01  2.409862263212E+01  2.438780610371E+01  2.468045977695E+01
  2.497662529428E+01  2.527634479781E+01  2.557966093538E+01  2.588661686660E+01
  2.619725626900E+01  2.651162334423E+01  2.682976282436E+01  2.715171997826E+01
  2.747754061799E+01  2.780727110541E+01  2.814095835868E+01  2.847864985898E+01
  2.882039365729E+01  2.916623838117E+01  2.951623324175E+01  2.987042804065E+01
  3.022887317714E+01  3.059161965526E+01  3.095871909113E+01  3.133022372022E+01
  3.170618640486E+01  3.208666064172E+01  3.247170056942E+01  3.286136097625E+01
  3.325569730797E+01  3.365476567566E+01  3.405862286377E+01  3.446732633814E+01
  3.488093425420E+01  3.529950546525E+01  3.572309953083E+01  3.615177672520E+01
  3.658559804590E+01  3.702462522245E+01  3.746892072512E+01  3.791854777382E+01
  3.837357034711E+01  3.883405319127E+01  3.930006182957E+01  3.977166257152E+01
  4.024892252238E+01  4.073190959265E+01  4.122069250776E+01  4.171534081786E+01
  4.221592490767E+01  4.272251600656E+01  4.323518619864E+01  4.375400843303E+01
  4.427905653422E+01
</grid-data>
</grid>
<valence-charge total-charge="8" is-unscreening-charge="yes"
 rescaled-to-z-pseudo="no">
<radfunc>
<data npts="457">
  1.094951108391E+01  1.095442924576E+01  1.096912591632E+01  1.099362725686E+01
  1.102765565800E+01  1.107233418237E+01  1.112916907963E+01  1.119410234751E+01
  1.126692475189E+01  1.135159584897E+01  1.144671044142E+01  1.154970401555E+01
  1.167363660812E+01  1.180243977530E+01  1.195355276033E+01  1.210357117854E+01
  1.227520959164E+01  1.243680696315E+01  1.261719939439E+01  1.281833077994E+01
  1.304227971038E+01  1.323934406673E+01  1.345359744285E+01  1.368625287842E+01
  1.393854658525E+01  1.421172230574E+01  1.450701116729E+01  1.474370953923E+01
  1.499399832023E+01  1.525832588543E+01  1.553709932182E+01  1.583067246861E+01
  1.613933225389E+01  1.646328318791E+01  1.680262988169E+01  1.715735747518E+01
  1.752730988276E+01  1.791216579818E+01  1.817677163719E+01  1.844757287937E+01
  1.872431714650E+01  1.900670053253E+01  1.929436330157E+01  1.958688545440E+01
  1.988378219121E+01  2.018449930517E+01  2.048840854874E+01  2.079480302261E+01
  2.110289264641E+01  2.141179977972E+01  2.172055507262E+01  2.202809363608E+01
  2.233325163408E+01  2.263476341175E+01  2.293125928582E+01  2.322126413639E+01
  2.350319695071E+01  2.377537148119E+01  2.403599818977E+01  2.428318765928E+01
  2.451495565824E+01  2.472923004846E+01  2.492385972377E+01  2.509662576210E+01
  2.524525496163E+01  2.536743591289E+01  2.546083773255E+01  2.549601797226E+01
  2.552313154905E+01  2.554189165226E+01  2.555201478520E+01  2.555322167551E+01
  2.554523822704E+01  2.552779651195E+01  2.550063580106E+01  2.546350363069E+01
  2.541615690318E+01  2.535836301837E+01  2.528990103263E+01  2.521056284162E+01
  2.512015438253E+01  2.501849685108E+01  2.490542792795E+01  2.478080300907E+01
  2.464449643336E+01  2.449640270133E+01  2.433643767735E+01  2.416453976784E+01
  2.398067106730E+01  2.378481846374E+01  2.357699469446E+01  2.335723934301E+01
  2.312561976775E+01  2.288223195219E+01  2.262720126726E+01  2.236068313530E+01
  2.208286358586E+01  2.179395969321E+01  2.149421988592E+01  2.118392411878E+01
  2.086338389825E+01  2.053294215259E+01  2.019297293904E+01  1.984388098074E+01
  1.948610102734E+01  1.912009703412E+01  1.874636115582E+01  1.836541255246E+01
  1.797779600630E+01  1.758408035024E+01  1.718485671001E+01  1.678073656420E+01
  1.637234962802E+01  1.596034156874E+01  1.554537156276E+01  1.512810970630E+01
  1.470923429364E+01  1.428942897910E+01  1.386937984053E+01  1.344977236430E+01
  1.303128837319E+01  1.261460292037E+01  1.220038117368E+01  1.178927531602E+01
  1.138192148791E+01  1.097893679926E+01  1.058091643740E+01  1.018843089817E+01
  9.802023366555E+00  9.422207272313E+00  9.049464044563E+00  8.684241087946E+00
  8.326950000561E+00  7.977965051590E+00  7.637621933697E+00  7.306216802214E+00
  6.984005609785E+00  6.671203741651E+00  6.367985953066E+00  6.074486606660E+00
  5.790800203851E+00  5.516982200793E+00  5.253050095929E+00  4.998984772983E+00
  4.754732080385E+00  4.520204625588E+00  4.295283760661E+00  4.079821733974E+00
  3.873643981674E+00  3.676551532078E+00  3.488323496061E+00  3.308719616902E+00
  3.137482853963E+00  2.974341975750E+00  2.819014139541E+00  2.671207436439E+00
  2.530623382693E+00  2.396959339950E+00  2.269910849003E+00  2.149173863194E+00
  2.034446869078E+00  1.925432883010E+00  1.821841428227E+00  1.723390824986E+00
  1.629810594554E+00  1.540842714980E+00  1.456242696322E+00  1.375780460769E+00
  1.299241018203E+00  1.226424926255E+00  1.157148524336E+00  1.091243932236E+00
  1.028558805878E+00  9.689558458159E-01  9.123112943228E-01  8.585102421419E-01
  8.074403041209E-01  7.589917159642E-01  7.130573379007E-01  6.695327045605E-01
  6.283160655497E-01  5.893084171746E-01  5.524135257619E-01  5.175379430319E-01
  4.845910139729E-01  4.534848776671E-01  4.241344615129E-01  3.964574692812E-01
  3.703743634369E-01  3.458083421487E-01  3.226853113975E-01  3.009338525858E-01
  2.804851860346E-01  2.612731307450E-01  2.432340607832E-01  2.263068586371E-01
  2.104328658759E-01  1.955558314270E-01  1.816218577720E-01  1.685793453461E-01
  1.563789354090E-01  1.449734516406E-01  1.343178407004E-01  1.243691119736E-01
  1.150862767109E-01  1.064302867604E-01  9.836397307018E-02  9.085198413269E-02
  8.386072452778E-02  7.735829371046E-02  7.131442517909E-02  6.570042614947E-02
  6.048911785120E-02  5.565477655366E-02  5.117307542064E-02  4.702102728494E-02
  4.317692842638E-02  3.962030342973E-02  3.633185119203E-02  3.329339214189E-02
  3.048781672706E-02  2.789903522009E-02  2.551192888541E-02  2.331230254547E-02
  2.128683857717E-02  1.942305236413E-02  1.770924922454E-02  1.613448282861E-02
  1.468851511437E-02  1.336177770500E-02  1.214533482606E-02  1.103084771575E-02
  1.001054051720E-02  9.077167636724E-03  8.223982548541E-03  7.444708022188E-03
  6.733507745540E-03  6.084959313160E-03  5.494028546830E-03  4.956045112605E-03
  4.466679396607E-03  4.021920599891E-03  3.618056011283E-03  3.251651415901E-03
  2.919532596240E-03  2.618767882198E-03  2.346651706135E-03  2.100689119152E-03
  1.878581225023E-03  1.678211488757E-03  1.497632877476E-03  1.335055792224E-03
  1.188836750349E-03  1.057467779329E-03  9.395664841690E-04  8.338667518948E-04
  7.392100580859E-04  6.545373418574E-04  5.788814171805E-04  5.113598899110E-04
  4.511685513589E-04  3.975752206675E-04  3.499140096681E-04  3.075799852296E-04
  2.700242054206E-04  2.367491070484E-04  2.073042233262E-04  1.812822115484E-04
  1.583151717240E-04  1.380712381362E-04  1.202514267492E-04  1.045867222992E-04
  9.083538975770E-05  7.878049567327E-05  6.822762566634E-05  5.900278508165E-05
  5.095047049879E-05  4.393190046132E-05  3.782339441485E-05  3.251488944598E-05
  2.790858498855E-05  2.391770621410E-05  2.046537735027E-05  1.748359667631E-05
  1.491230542977E-05  1.269854332306E-05  1.079568381508E-05  9.162742710598E-06
  7.763754069941E-06  6.567207804183E-06  5.545543706171E-06  4.674697026345E-06
  3.933691044251E-06  3.304272412232E-06  2.770585357328E-06  2.318881121090E-06
  1.937259295078E-06  1.615437972617E-06  1.344549885137E-06  1.116961924565E-06
  9.261156720662E-07  7.663867583740E-07  6.329610724529E-07  5.217260137083E-07
  4.291751489369E-07  3.523247891509E-07  2.886411438504E-07  2.359768417917E-07
  1.925157283381E-07  1.567249606375E-07  1.273135236933E-07  1.031963834270E-07
  8.346357761646E-08  6.735362266410E-08  5.423068402473E-08  4.356502131014E-08
  3.491627608210E-08  2.791922161395E-08  2.227163990136E-08  1.772403236624E-08
  1.407090743452E-08  1.114342086798E-08  8.803173757583E-09  6.936998783968E-09
  5.452588039921E-09  4.274835687536E-09  3.342786264947E-09  2.607094818596E-09
  2.027918450570E-09  1.573170550908E-09  1.217079127070E-09  9.389994245708E-10
  7.224386149668E-10  5.542568547700E-10  4.240146212266E-10  3.234410287859E-10
  2.460019193357E-10  1.865500006282E-10  1.410422316339E-10  1.063125385596E-10
  7.988802442062E-11  5.984491533012E-11  4.468996824822E-11  3.326710226453E-11
  2.468455468903E-11  1.825677555580E-11  1.345842284872E-11  9.888222444142E-12
  7.240669033743E-12  5.283939177498E-12  3.842709791429E-12  2.784837312418E-12
  2.011065034163E-12  1.447097507826E-12  1.037518829310E-12  7.411421317946E-13
  5.274667627730E-13  3.739874739581E-13  2.641602381607E-13  1.858686019936E-13
  1.302723433335E-13  9.094630120081E-14  6.323871257026E-14  4.379495847480E-14
  3.020546647629E-14  2.074644192524E-14  1.418969129063E-14  0.000000000000E+00
  0.000000000000E+00  0.000000000000E+00  0.000000000000E+00  0.000000000000E+00
  0.000000000000E+00  0.000000000000E+00  0.000000000000E+00  0.000000000000E+00
  0.000000000000E+00  0.000000000000E+00  0.000000000000E+00  0.000000000000E+00
  0.000000000000E+00  0.000000000000E+00  0.000000000000E+00  0.000000000000E+00
  0.000000000000E+00  0.000000000000E+00  0.000000000000E+00  0.000000000000E+00
  0.000000000000E+00  0.000000000000E+00  0.000000000000E+00  0.000000000000E+00
  0.000000000000E+00  0.000000000000E+00  0.000000000000E+00  0.000000000000E+00
  0.000000000000E+00  0.000000000000E+00  0.000000000000E+00  0.000000000000E+00
  0.000000000000E+00  0.000000000000E+00  0.000000000000E+00  0.000000000000E+00
  0.000000000000E+00  0.000000000000E+00  0.000000000000E+00  0.000000000000E+00
  0.000000000000E+00  0.000000000000E+00  0.000000000000E+00  0.000000000000E+00
  0.000000000000E+00  0.000000000000E+00  0.000000000000E+00  0.000000000000E+00
  0.000000000000E+00  0.000000000000E+00  0.000000000000E+00  0.000000000000E+00
  0.000000000000E+00  0.000000000000E+00  0.000000000000E+00  0.000000000000E+00
  0.000000000000E+00  0.000000000000E+00  0.000000000000E+00  0.000000000000E+00
  0.000000000000E+00  0.000000000000E+00  0.000000000000E+00  0.000000000000E+00
  0.000000000000E+00  0.000000000000E+00  0.000000000000E+00  0.000000000000E+00
  0.000000000000E+00  0.000000000000E+00  0.000000000000E+00  0.000000000000E+00
  0.000000000000E+00  0.000000000000E+00  0.000000000000E+00  0.000000000000E+00
  0.000000000000E+00  0.000000000000E+00  0.000000000000E+00  0.000000000000E+00
  0.000000000000E+00  0.000000000000E+00  0.000000000000E+00  0.000000000000E+00
  0.000000000000E+00  0.000000000000E+00  0.000000000000E+00  0.000000000000E+00
  0.000000000000E+00
</data>
</radfunc>
</valence-charge>
<semilocal-potentials set="lj">
<slps n="2" l="s" j="0.5" rc="1.31204028561" eref="-1.33028926553">
<radfunc>
<data npts="256">
 -1.325444815992E+01 -1.325751243544E+01 -1.326635326215E+01 -1.328023920964E+01
 -1.329789557586E+01 -1.331851011898E+01 -1.334108721301E+01 -1.336267116116E+01
 -1.338247215569E+01 -1.340075118976E+01 -1.341644323259E+01 -1.342890820624E+01
 -1.343911371094E+01 -1.344551520142E+01 -1.344897600201E+01 -1.344922253628E+01
 -1.344667729448E+01 -1.344227190604E+01 -1.343569517173E+01 -1.342689070427E+01
 -1.341583203226E+01 -1.340536202790E+01 -1.339346169349E+01 -1.338015186633E+01
 -1.336546083979E+01 -1.334942304349E+01 -1.333207778180E+01 -1.331823657165E+01
 -1.330370319420E+01 -1.328849735918E+01 -1.327263907395E+01 -1.325614835202E+01
 -1.323904487367E+01 -1.322134757256E+01 -1.320307411858E+01 -1.318424026309E+01
 -1.316485900872E+01 -1.314493956145E+01 -1.313136321390E+01 -1.311754925511E+01
 -1.310349573283E+01 -1.308919882363E+01 -1.307465250000E+01 -1.305984815207E+01
 -1.304477415965E+01 -1.302941541036E+01 -1.301375276020E+01 -1.299776243364E+01
 -1.298141536210E+01 -1.296467646154E+01 -1.294750385352E+01 -1.292984803791E+01
 -1.291165103144E+01 -1.289284549257E+01 -1.287335386150E+01 -1.285308755277E+01
 -1.283194624702E+01 -1.280981733689E+01 -1.278657558903E+01 -1.276208308694E+01
 -1.273618951776E+01 -1.270873285704E+01 -1.267954048811E+01 -1.264843076627E+01
 -1.261521500327E+01 -1.257969980619E+01 -1.254168966196E+01 -1.252168796782E+01
 -1.250098961885E+01 -1.247957076104E+01 -1.245740788714E+01 -1.243447790011E+01
 -1.241075816815E+01 -1.238622657009E+01 -1.236086153039E+01 -1.233464204301E+01
 -1.230754768386E+01 -1.227955861179E+01 -1.225065555833E+01 -1.222081980683E+01
 -1.219003316177E+01 -1.215827790950E+01 -1.212553677166E+01 -1.209179285293E+01
 -1.205702958472E+01 -1.202123066669E+01 -1.198438000787E+01 -1.194646166914E+01
 -1.190745980895E+01 -1.186735863371E+01 -1.182614235459E+01 -1.178379515174E+01
 -1.174030114726E+01 -1.169564438774E+01 -1.164980883698E+01 -1.160277837946E+01
 -1.155453683473E+01 -1.150506798279E+01 -1.145435560045E+01 -1.140238350824E+01
 -1.134913562768E+01 -1.129459604826E+01 -1.123874910369E+01 -1.118157945675E+01
 -1.112307219208E+01 -1.106321291628E+01 -1.100198786465E+01 -1.093938401389E+01
 -1.087538920013E+01 -1.080999224177E+01 -1.074318306648E+01 -1.067495284184E+01
 -1.060529410923E+01 -1.053420092049E+01 -1.046166897688E+01 -1.038769577014E+01
 -1.031228072527E+01 -1.023542534467E+01 -1.015713335365E+01 -1.007741084685E+01
 -9.996266435701E+00 -9.913711396542E+00 -9.829759819650E+00 -9.744428758940E+00
 -9.657738382545E+00 -9.569712124344E+00 -9.480376836667E+00 -9.389762944449E+00
 -9.297904601214E+00 -9.204839847351E+00 -9.110610771283E+00 -9.015263674201E+00
 -8.918849239234E+00 -8.821422706009E+00 -8.723044051792E+00 -8.623778180538E+00
 -8.523695121495E+00 -8.422870239217E+00 -8.321384457269E+00 -8.219324498300E+00
 -8.116783143703E+00 -8.013859516759E+00 -7.910659393872E+00 -7.807295549457E+00
 -7.703888140993E+00 -7.600565141872E+00 -7.497462830771E+00 -7.394726347343E+00
 -7.292510324895E+00 -7.190979611325E+00 -7.090310089596E+00 -6.990689608420E+00
 -6.892319032103E+00 -6.795413415690E+00 -6.700203307148E+00 -6.606936172292E+00
 -6.515877930301E+00 -6.427314577878E+00 -6.341553877891E+00 -6.258926946240E+00
 -6.179789769898E+00 -6.104526799437E+00 -6.031735384856E+00 -5.959646874740E+00
 -5.888317869959E+00 -5.817767298758E+00 -5.748017677213E+00 -5.679093235984E+00
 -5.611019101580E+00 -5.543820147942E+00 -5.477519532506E+00 -5.412138169859E+00
 -5.347694027200E+00 -5.284179777022E+00 -5.221517581084E+00 -5.159609616492E+00
 -5.098427209370E+00 -5.037971262249E+00 -4.978232108123E+00 -4.919201347151E+00
 -4.860870571727E+00 -4.803231480871E+00 -4.746275872042E+00 -4.689995639976E+00
 -4.634382775527E+00 -4.579429364535E+00 -4.525127586697E+00 -4.471469714455E+00
 -4.418448111898E+00 -4.366055233681E+00 -4.314283623945E+00 -4.263125915262E+00
 -4.212574827588E+00 -4.162623167228E+00 -4.113263825812E+00 -4.064489779289E+00
 -4.016294086925E+00 -3.968669890320E+00 -3.921610412435E+00 -3.875108956614E+00
 -3.829158905657E+00 -3.783753720868E+00 -3.738886941108E+00 -3.694552181903E+00
 -3.650743134518E+00 -3.607453565066E+00 -3.564677313615E+00 -3.522408293312E+00
 -3.480640489516E+00 -3.439367958938E+00 -3.398584828793E+00 -3.358285295961E+00
 -3.318463626159E+00 -3.279114153119E+00 -3.240231277781E+00 -3.201809467489E+00
 -3.163843255203E+00 -3.126327238713E+00 -3.089256079872E+00 -3.052624503826E+00
 -3.016427298263E+00 -2.980659312669E+00 -2.945315457588E+00 -2.910390703900E+00
 -2.875880082096E+00 -2.841778681576E+00 -2.808081649941E+00 -2.774784192309E+00
 -2.741881570625E+00 -2.709369102989E+00 -2.677242162993E+00 -2.645496179056E+00
 -2.614126633781E+00 -2.583129063314E+00 -2.552499056704E+00 -2.522232255284E+00
 -2.492324352052E+00 -2.462771091060E+00 -2.433568266812E+00 -2.404711723670E+00
 -2.376197355263E+00 -2.348021103912E+00 -2.320178960048E+00 -2.292666961652E+00
 -2.265481193690E+00 -2.238617787559E+00 -2.212072920541E+00 -2.185842815259E+00
 -2.159923739144E+00 -2.134312003900E+00 -2.109003964987E+00 -2.083996021097E+00
 -2.059284613645E+00 -2.034866226263E+00 -2.010737384297E+00 -1.986894654313E+00
</data>
</radfunc>
</slps>
<slps n="2" l="p" j="1.5" rc="1.51395623227" eref="-0.486377419277">
<radfunc>
<data npts="256">
 -2.066691106155E+01 -2.066965988072E+01 -2.067755763961E+01 -2.068987001569E+01
 -2.070533814023E+01 -2.072307459969E+01 -2.074198232813E+01 -2.075936276178E+01
 -2.077443508704E+01 -2.078719670562E+01 -2.079666574288E+01 -2.080236199507E+01
 -2.080438050181E+01 -2.080222376812E+01 -2.079557869225E+01 -2.078572164217E+01
 -2.077152845102E+01 -2.075606875460E+01 -2.073704935037E+01 -2.071424118261E+01
 -2.068742408707E+01 -2.066293886816E+01 -2.063563870950E+01 -2.060540967079E+01
 -2.057213256017E+01 -2.053568049973E+01 -2.049591646820E+01 -2.046383049986E+01
 -2.042972912499E+01 -2.039353840909E+01 -2.035517843048E+01 -2.031456261680E+01
 -2.027159701866E+01 -2.022617949496E+01 -2.017819878084E+01 -2.012753340512E+01
 -2.007405042095E+01 -2.001760390850E+01 -1.997824782325E+01 -1.993745188948E+01
 -1.989516080728E+01 -1.985131528787E+01 -1.980585165914E+01 -1.975870142607E+01
 -1.970979078190E+01 -1.965904006623E+01 -1.960636316653E+01 -1.955166686063E+01
 -1.949485009914E+01 -1.943580322931E+01 -1.937440716461E+01 -1.931053250917E+01
 -1.924403865143E+01 -1.917477284833E+01 -1.910256932938E+01 -1.902724845896E+01
 -1.894861600409E+01 -1.886646256409E+01 -1.878056322484E+01 -1.869067750412E+01
 -1.859654965281E+01 -1.849790936785E+01 -1.839447295623E+01 -1.828594496318E+01
 -1.817202024359E+01 -1.805238641527E+01 -1.792672659074E+01 -1.786153737642E+01
 -1.779472224561E+01 -1.772624159267E+01 -1.765605605375E+01 -1.758412658090E+01
 -1.751041450894E+01 -1.743488161413E+01 -1.735749016376E+01 -1.727820295638E+01
 -1.719698335227E+01 -1.711379529453E+01 -1.702860332100E+01 -1.694137256805E+01
 -1.685206876723E+01 -1.676065823616E+01 -1.666710786553E+01 -1.657138510381E+01
 -1.647345794206E+01 -1.637329490075E+01 -1.627086502110E+01 -1.616613786307E+01
 -1.605908351238E+01 -1.594967259874E+01 -1.583787632737E+01 -1.572366652592E+01
 -1.560701570859E+01 -1.548789715909E+01 -1.536628503420E+01 -1.524215448913E+01
 -1.511548182621E+01 -1.498624466786E+01 -1.485442215506E+01 -1.471999517235E+01
 -1.458294660022E+01 -1.444326159597E+01 -1.430092790377E+01 -1.415593619513E+01
 -1.400828044049E+01 -1.385795831298E+01 -1.370497162547E+01 -1.354932680172E+01
 -1.339103538268E+01 -1.323011456899E+01 -1.306658780034E+01 -1.290048537255E+01
 -1.273184509281E+01 -1.256071297330E+01 -1.238714396297E+01 -1.221120271692E+01
 -1.203296440187E+01 -1.185251553588E+01 -1.166995485890E+01 -1.148539423035E+01
 -1.129895954776E+01 -1.111079167950E+01 -1.092104740249E+01 -1.072990033364E+01
 -1.053754184148E+01 -1.034418192164E+01 -1.015005001679E+01 -9.955395758511E+00
 -9.760489604963E+00 -9.565623344436E+00 -9.371110431181E+00 -9.177286115886E+00
 -8.984507329488E+00 -8.793152275465E+00 -8.603619682740E+00 -8.416327669035E+00
 -8.231712163196E+00 -8.050224835090E+00 -7.872330483376E+00 -7.698503835266E+00
 -7.529225718611E+00 -7.364978575651E+00 -7.206241299809E+00 -7.053483392279E+00
 -6.907158453762E+00 -6.767697048620E+00 -6.635499003496E+00 -6.510925229566E+00
 -6.394289186270E+00 -6.285848133414E+00 -6.185794346722E+00 -6.094246497614E+00
 -6.011241419591E+00 -5.936726499473E+00 -5.870552940347E+00 -5.812470143237E+00
 -5.762121445514E+00 -5.719041435761E+00 -5.682655047240E+00 -5.652278469063E+00
 -5.627122088680E+00 -5.606297763650E+00 -5.588831184585E+00 -5.573666919630E+00
 -5.559670577612E+00 -5.545646040616E+00 -5.530355441035E+00 -5.512535777017E+00
 -5.490918948970E+00 -5.464253962626E+00 -5.431331512626E+00 -5.391012476117E+00
 -5.342259550752E+00 -5.284150980677E+00 -5.221517581084E+00 -5.159609616492E+00
 -5.098427209370E+00 -5.037971262249E+00 -4.978232108123E+00 -4.919201347151E+00
 -4.860870571727E+00 -4.803231480871E+00 -4.746275872042E+00 -4.689995639976E+00
 -4.634382775527E+00 -4.579429364535E+00 -4.525127586697E+00 -4.471469714455E+00
 -4.418448111898E+00 -4.366055233681E+00 -4.314283623945E+00 -4.263125915262E+00
 -4.212574827588E+00 -4.162623167228E+00 -4.113263825812E+00 -4.064489779289E+00
 -4.016294086925E+00 -3.968669890320E+00 -3.921610412435E+00 -3.875108956614E+00