<?xml version="1.0" encoding="UTF-8" ?>
<psml version="1.1" energy_unit="hartree" length_unit="bohr"
 uuid="fb1cce20-539d-11e8-4960-f281fedfcae5"
 xmlns="http://esl.cecam.org/PSML/ns/1.1">
<provenance creator="ONCVPSP-3.3.0+psml-3.3.0-73 (fully-relativistic)"
 date="2018-05-09">
<annotation action="semilocal-pseudopotential-generation"
 action-cont="projectors-generation" />
<input-file name="oncvpsp-input">
<![CDATA[# atsym z nc nv iexc psfile
Ne 10 1 2 -116133 upf
# n l f
1 0 2.0
2 0 2.0
2 1 6.0
# lmax
1
# l rc ep ncon nbas qcut
0 1.3 0.0 4 7 8.0
1 1.7 0.0 4 7 8.0
# lloc lpopt rc5 dvloc0
4 5 1.3 0.0
# l nproj debl
0 2 1.5
1 2 1.5
# icmod fcfact rcfact
0 0.05 0.0
# epsh1 epsh2 depsh
-12.0 12.0 0.02
# rlmax drl
4.0 0.01
 0
]]>
</input-file>
</provenance>
<pseudo-atom-spec atomic-label="Ne" atomic-number="10" z-pseudo="8"
 flavor="Hamann&apos;s oncvpsp" relativity="dirac" spin-dft="no"
 core-corrections="no">
<annotation pseudo-energy="-33.2874546674" />
<exchange-correlation>
<annotation oncvpsp-xc-code="-116133" oncvpsp-xc-type="libxc-interface" />
<libxc-info number-of-functionals="2">
<functional name="Perdew, Burke &amp; Ernzerhof SOL (GGA)" type="exchange"
 id="116" />
<functional name="Perdew, Burke &amp; Ernzerhof SOL (GGA)" type="correlation"
 id="133" />
</libxc-info>
</exchange-correlation>
<valence-configuration total-valence-charge="8">
<shell n="2" l="s" occupation="2" />
<shell n="2" l="p" occupation="6" />
</valence-configuration>
</pseudo-atom-spec>
<grid npts="457">
<annotation type="sampled from oncvpsp log grid"
 recipe="r(i:1..N) = r1*exp(a*(i-1)) + r=0; resampled"
 recipe-cont="r1: scale; a: step" scale="0.500000000000E-04"
 step="0.119285708653E-01" delta="0.500000000000E-02" rmax="44.2790565342" />
<grid-data>
  0.000000000000E+00  5.056247722070E-03  1.009945802476E-02  1.515079750118E-02
  2.017287482746E-02  2.530448665413E-02  3.062567936492E-02  3.576287246250E-02
  4.077725916977E-02  4.594340263175E-02  5.115025098203E-02  5.627193755841E-02
  6.190645980780E-02  6.729759692282E-02  7.315822235107E-02  7.858618733336E-02
  8.441687948565E-02  8.960492005827E-02  9.511180403221E-02  1.009571266888E-01
  1.071616875840E-01  1.123987792098E-01  1.178918123882E-01  1.236532952216E-01
  1.296963470949E-01  1.360347285499E-01  1.426828726186E-01  1.478813415899E-01
  1.532692101656E-01  1.588533788796E-01  1.646409996776E-01  1.706394850775E-01
  1.768565176628E-01  1.833000599224E-01  1.899783644480E-01  1.968999845042E-01
  2.040737849828E-01  2.115089537568E-01  2.166156259363E-01  2.218455936089E-01
  2.272018336210E-01  2.326873946919E-01  2.383053991494E-01  2.440590447064E-01
  2.499516062818E-01  2.559864378639E-01  2.621669744197E-01  2.684967338501E-01
  2.749793189921E-01  2.816184196699E-01  2.884178147944E-01  2.953813745148E-01
  3.025130624211E-01  3.098169378002E-01  3.172971579464E-01  3.249579805279E-01
  3.328037660097E-01  3.408389801363E-01  3.490681964727E-01  3.574960990083E-01
  3.661274848228E-01  3.749672668164E-01  3.840204765064E-01  3.932922668911E-01
  4.027879153830E-01  4.125128268120E-01  4.224725365025E-01  4.275422069405E-01
  4.326727134238E-01  4.378647859849E-01  4.431191634167E-01  4.484365933777E-01
  4.538178324983E-01  4.592636464882E-01  4.647748102461E-01  4.703521079691E-01
  4.759963332647E-01  4.817082892639E-01  4.874887887350E-01  4.933386541998E-01
  4.992587180502E-01  5.052498226668E-01  5.113128205389E-01  5.174485743853E-01
  5.236579572779E-01  5.299418527653E-01  5.363011549985E-01  5.427367688584E-01
  5.492496100847E-01  5.558406054058E-01  5.625106926706E-01  5.692608209827E-01
  5.760919508345E-01  5.830050542445E-01  5.900011148954E-01  5.970811282742E-01
  6.042461018134E-01  6.114970550352E-01  6.188350196956E-01  6.262610399320E-01
  6.337761724112E-01  6.413814864801E-01  6.490780643179E-01  6.568670010897E-01
  6.647494051028E-01  6.727263979640E-01  6.807991147396E-01  6.889687041164E-01
  6.972363285658E-01  7.056031645086E-01  7.140704024827E-01  7.226392473125E-01
  7.313109182803E-01  7.400866492996E-01  7.489676890912E-01  7.579553013603E-01
  7.670507649766E-01  7.762553741564E-01  7.855704386462E-01  7.949972839100E-01
  8.045372513169E-01  8.141916983327E-01  8.239619987127E-01  8.338495426973E-01
  8.438557372096E-01  8.539820060561E-01  8.642297901288E-01  8.746005476104E-01
  8.850957541817E-01  8.957169032319E-01  9.064655060706E-01  9.173430921435E-01
  9.283512092492E-01  9.394914237602E-01  9.507653208453E-01  9.621745046955E-01
  9.737205987518E-01  9.854052459368E-01  9.972301088881E-01  1.009196870195E+00
  1.021307232637E+00  1.033562919429E+00  1.045965674462E+00  1.058517262555E+00
  1.071219469706E+00  1.084074103343E+00  1.097082992583E+00  1.110247988494E+00
  1.123570964356E+00  1.137053815928E+00  1.150698461719E+00  1.164506843260E+00
  1.178480925379E+00  1.192622696483E+00  1.206934168841E+00  1.221417378867E+00
  1.236074387414E+00  1.250907280063E+00  1.265918167423E+00  1.281109185432E+00
  1.296482495658E+00  1.312040285605E+00  1.327784769033E+00  1.343718186261E+00
  1.359842804496E+00  1.376160918150E+00  1.392674849168E+00  1.409386947358E+00
  1.426299590726E+00  1.443415185815E+00  1.460736168045E+00  1.478265002061E+00
  1.496004182086E+00  1.513956232271E+00  1.532123707058E+00  1.550509191543E+00
  1.569115301842E+00  1.587944685464E+00  1.607000021689E+00  1.626284021949E+00
  1.645799430213E+00  1.665549023375E+00  1.685535611656E+00  1.705762038996E+00
  1.726231183464E+00  1.746945957665E+00  1.767909309157E+00  1.789124220867E+00
  1.810593711518E+00  1.832320836056E+00  1.854308686088E+00  1.876560390322E+00
  1.899079115005E+00  1.921868064385E+00  1.944930481158E+00  1.968269646932E+00
  1.991888882695E+00  2.015791549288E+00  2.039981047879E+00  2.064460820454E+00
  2.089234350299E+00  2.114305162503E+00  2.139676824453E+00  2.165352946346E+00
  2.191337181702E+00  2.217633227883E+00  2.244244826617E+00  2.271175764537E+00
  2.298429873711E+00  2.326011032196E+00  2.353923164582E+00  2.382170242557E+00
  2.410756285468E+00  2.439685360893E+00  2.468961585224E+00  2.498589124247E+00
  2.528572193738E+00  2.558915060062E+00  2.589622040783E+00  2.620697505273E+00
  2.652145875336E+00  2.683971625840E+00  2.716179285350E+00  2.748773436774E+00
  2.781758718015E+00  2.815139822632E+00  2.848921500503E+00  2.883108558509E+00
  2.917705861211E+00  2.952718331546E+00  2.988150951524E+00  3.024008762943E+00
  3.060296868098E+00  3.097020430515E+00  3.134184675681E+00  3.171794891790E+00
  3.209856430491E+00  3.248374707657E+00  3.287355204149E+00  3.326803466599E+00
  3.366725108198E+00  3.407125809496E+00  3.448011319210E+00  3.489387455041E+00
  3.531260104501E+00  3.573635225755E+00  3.616518848464E+00  3.659917074646E+00
  3.703836079541E+00  3.748282112496E+00  3.793261497846E+00  3.838780635820E+00
  3.884846003450E+00  3.931464155491E+00  3.978641725357E+00  4.026385426062E+00
  4.074702051174E+00  4.123598475788E+00  4.173081657498E+00  4.223158637388E+00
  4.273836541036E+00  4.325122579529E+00  4.377024050483E+00  4.429548339089E+00
  4.482702919158E+00  4.536495354188E+00  4.590933298438E+00  4.646024498020E+00
  4.701776791996E+00  4.758198113500E+00  4.815296490862E+00  4.873080048752E+00
  4.931557009337E+00  4.990735693449E+00  5.050624521770E+00  5.111232016032E+00
  5.172566800224E+00  5.234637601827E+00  5.297453253049E+00  5.361022692085E+00
  5.425354964390E+00  5.490459223963E+00  5.556344734651E+00  5.623020871466E+00
  5.690497121924E+00  5.758783087387E+00  5.827888484436E+00  5.897823146249E+00
  5.968597024004E+00  6.040220188292E+00  6.112702830551E+00  6.186055264518E+00
  6.260287927692E+00  6.335411382825E+00  6.411436319419E+00  6.488373555252E+00
  6.566234037915E+00  6.645028846370E+00  6.724769192526E+00  6.805466422836E+00
  6.887132019910E+00  6.969777604149E+00  7.053414935399E+00  7.138055914624E+00
  7.223712585599E+00  7.310397136626E+00  7.398121902266E+00  7.486899365093E+00
  7.576742157474E+00  7.667663063364E+00  7.759675020124E+00  7.852791120366E+00
  7.947024613810E+00  8.042388909176E+00  8.138897576086E+00  8.236564346999E+00
  8.335403119163E+00  8.435427956593E+00  8.536653092072E+00  8.639092929177E+00
  8.742762044327E+00  8.847675188859E+00  8.953847291125E+00  9.061293458619E+00
  9.170028980122E+00  9.280069327884E+00  9.391430159818E+00  9.504127321736E+00
  9.618176849597E+00  9.733594971792E+00  9.850398111454E+00  9.968602888791E+00
  1.008822612346E+01  1.020928483694E+01  1.033179625498E+01  1.045577781004E+01
  1.058124714376E+01  1.070822210949E+01  1.083672077480E+01  1.096676142410E+01
  1.109836256119E+01  1.123154291192E+01  1.136632142686E+01  1.150271728399E+01
  1.164074989140E+01  1.178043889009E+01  1.192180415677E+01  1.206486580665E+01
  1.220964419633E+01  1.235615992669E+01  1.250443384581E+01  1.265448705196E+01
  1.280634089658E+01  1.296001698734E+01  1.311553719119E+01  1.327292363748E+01
  1.343219872113E+01  1.359338510579E+01  1.375650572706E+01  1.392158379578E+01
  1.408864280133E+01  1.425770651495E+01  1.442879899313E+01  1.460194458104E+01
  1.477716791602E+01  1.495449393101E+01  1.513394785818E+01  1.531555523248E+01
  1.549934189527E+01  1.568533399801E+01  1.587355800599E+01  1.606404070206E+01
  1.625680919049E+01  1.645189090077E+01  1.664931359158E+01  1.684910535468E+01
  1.705129461894E+01  1.725591015436E+01  1.746298107622E+01  1.767253684913E+01
  1.788460729132E+01  1.809922257882E+01  1.831641324976E+01  1.853621020876E+01
  1.875864473126E+01  1.898374846804E+01  1.921155344965E+01  1.944209209105E+01
  1.967539719614E+01  1.991150196250E+01  2.015043998605E+01  2.039224526588E+01
  2.063695220907E+01  2.088459563558E+01  2.113521078321E+01  2.138883331260E+01
  2.164549931236E+01  2.190524530410E+01  2.216810824775E+01  2.243412554673E+01
  2.270333505329E+01  2.297577507393E+01  2.325148437481E+01  2.353050218731E+01
  2.381286821356E+01  2.409862263212E+01  2.438780610371E+01  2.468045977695E+01
  2.497662529428E+01  2.527634479781E+01  2.557966093538E+01  2.588661686660E+01
  2.619725626900E+01  2.651162334423E+01  2.682976282436E+01  2.715171997826E+01
  2.747754061799E+01  2.780727110541E+01  2.814095835868E+01  2.847864985898E+01
  2.882039365729E+01  2.916623838117E+01  2.951623324175E+01  2.987042804065E+01
  3.022887317714E+01  3.059161965526E+01  3.095871909113E+01  3.133022372022E+01
  3.170618640486E+01  3.208666064172E+01  3.247170056942E+01  3.286136097625E+01
  3.325569730797E+01  3.365476567566E+01  3.405862286377E+01  3.446732633814E+01
  3.488093425420E+01  3.529950546525E+01  3.572309953083E+01  3.615177672520E+01
  3.658559804590E+01  3.702462522245E+01  3.746892072512E+01  3.791854777382E+01
  3.837357034711E+01  3.883405319127E+01  3.930006182957E+01  3.977166257152E+01
  4.024892252238E+01  4.073190959265E+01  4.122069250776E+01  4.171534081786E+01
  4.221592490767E+01  4.272251600656E+01  4.323518619864E+01  4.375400843303E+01
  4.427905653422E+01
</grid-data>
</grid>
<valence-charge total-charge="8" is-unscreening-charge="yes"
 rescaled-to-z-pseudo="no">
<radfunc>
<data npts="457">
  1.136018917286E+01  1.136349676100E+01  1.137338125224E+01  1.138986212461E+01
  1.141275573299E+01  1.144282221091E+01  1.148108199096E+01  1.152481079796E+01
  1.157387468533E+01  1.163095127643E+01  1.169510611093E+01  1.176462136338E+01
  1.184833334582E+01  1.193540998859E+01  1.203766724299E+01  1.213928988432E+01
  1.225568923251E+01  1.236540885867E+01  1.248804055361E+01  1.262496116352E+01
  1.277765528160E+01  1.291223216801E+01  1.305877851425E+01  1.321818943937E+01
  1.339139016906E+01  1.357932789757E+01  1.378296091741E+01  1.394656095330E+01
  1.411992352775E+01  1.430343305397E+01  1.449745604133E+01  1.470233394610E+01
  1.491837488544E+01  1.514584409814E+01  1.538495303339E+01  1.563584695041E+01
  1.589859091702E+01  1.617315410549E+01  1.636269648561E+01  1.655735583387E+01
  1.675702856485E+01  1.696157924178E+01  1.717083749896E+01  1.738459480821E+01
  1.760260109797E+01  1.782456123682E+01  1.805013139758E+01  1.827891532239E+01
  1.851046051474E+01  1.874425438996E+01  1.897972042229E+01  1.921621433400E+01
  1.945302037954E+01  1.968934778663E+01  1.992432742500E+01  2.015700878352E+01
  2.038635734631E+01  2.061125246938E+01  2.083048586951E+01  2.104276084814E+01
  2.124669238303E+01  2.144080823001E+01  2.162355118557E+01  2.179328266779E+01
  2.194828777771E+01  2.208678200469E+01  2.220691973774E+01  2.225951399313E+01
  2.230680473811E+01  2.234854909546E+01  2.238450271709E+01  2.241442030094E+01
  2.243805614487E+01  2.245516473832E+01  2.246550139180E+01  2.246882290453E+01
  2.246488827004E+01  2.245345941948E+01  2.243430200212E+01  2.240718620227E+01
  2.237188759148E+01  2.232818801468E+01  2.227587650866E+01  2.221475025068E+01
  2.214461553501E+01  2.206528877447E+01  2.197659752392E+01  2.187838152211E+01
  2.177049374782E+01  2.165280148604E+01  2.152518739912E+01  2.138755059784E+01
  2.123980770644E+01  2.108189391559E+01  2.091376401667E+01  2.073539341028E+01
  2.054677908173E+01  2.034794053562E+01  2.013892068145E+01  1.991978666195E+01
  1.969063061533E+01  1.945157036287E+01  1.920275001270E+01  1.894434047079E+01
  1.867653985038E+01  1.839957377061E+01  1.811369553604E+01  1.781918618843E+01
  1.751635442296E+01  1.720553636141E+01  1.688709517547E+01  1.656142055418E+01
  1.622892801039E+01  1.589005802203E+01  1.554527500531E+01  1.519506611800E+01
  1.483993989264E+01  1.448042470059E+01  1.411706704999E+01  1.375042972175E+01
  1.338108975008E+01  1.300963625543E+01  1.263666813970E+01  1.226279165576E+01
  1.188861786458E+01  1.151475999576E+01  1.114183072851E+01  1.077043941213E+01
  1.040118924631E+01  1.003467444328E+01  9.671477394634E+00  9.312165866842E+00
  8.957290250201E+00  8.607380886127E+00  8.262945497998E+00  7.924466750412E+00
  7.592399961103E+00  7.267170988825E+00  6.949174319123E+00  6.638771368229E+00
  6.336289023216E+00  6.042018434166E+00  5.756214071332E+00  5.479093057328E+00
  5.210834781102E+00  4.951580797067E+00  4.701435009203E+00  4.460464136385E+00
  4.228698451604E+00  4.006132784269E+00  3.792727771458E+00  3.588411340913E+00
  3.393080405788E+00  3.206602748748E+00  3.028819071064E+00  2.859545180802E+00
  2.698574293235E+00  2.545679416116E+00  2.400615792490E+00  2.263123374307E+00
  2.132929301130E+00  2.009750359728E+00  1.893295545031E+00  1.783269123513E+00
  1.679373933628E+00  1.581313361772E+00  1.488793198757E+00  1.401523360720E+00
  1.319219472065E+00  1.241604306998E+00  1.168409087839E+00  1.099374639511E+00
  1.034252400360E+00  9.728052898642E-01  9.148084337366E-01  8.600497466286E-01
  8.083303720848E-01  7.594649787788E-01  7.132819114658E-01  6.696231946820E-01
  6.283443871621E-01  5.893142853455E-01  5.524144753421E-01  5.175387343910E-01
  4.845917439981E-01  4.534855850869E-01  4.241351461851E-01  3.964581311430E-01
  3.703750024991E-01  3.458089584896E-01  3.226859051577E-01  3.009344239627E-01
  2.804857352773E-01  2.612736581493E-01  2.432345666871E-01  2.263073434165E-01
  2.104333299400E-01  1.955562752144E-01  1.816222817473E-01  1.685797499959E-01
  1.563793212384E-01  1.449738191706E-01  1.343181904645E-01  1.243694445150E-01
  1.150865925802E-01  1.064305865129E-01  9.836425726375E-02  9.085225332564E-02
  8.386097927704E-02  7.735853456983E-02  7.131465269760E-02  6.570064086998E-02
  6.048932030908E-02  5.565496727562E-02  5.117325492372E-02  4.702119607556E-02
  4.317708699957E-02  3.962045226843E-02  3.633199076649E-02  3.329352290919E-02
  3.048793913074E-02  2.789914968979E-02  2.551203583667E-02  2.331240237954E-02
  2.128693168093E-02  1.942313911008E-02  1.770932997076E-02  1.613455791890E-02
  1.468858487833E-02  1.336184245823E-02  1.214539487030E-02  1.103090333919E-02
  1.001059199467E-02  9.077215230030E-03  8.224026506760E-03  7.444748581995E-03
  6.733545131551E-03  6.084993738294E-03  5.494060212670E-03  4.956074209778E-03
  4.466706105162E-03  4.021945089684E-03  3.618078442362E-03  3.251671938892E-03
  2.919551352734E-03  2.618785005130E-03  2.346667320165E-03  2.100703341034E-03
  1.878594163978E-03  1.678223246827E-03  1.497643549884E-03  1.335065467711E-03
  1.188845511518E-03  1.057475702967E-03  9.395736415648E-04  8.338732091490E-04
  7.392158764065E-04  6.545425778471E-04  5.788861231135E-04  5.113641139985E-04
  4.511723380047E-04  3.975786107121E-04  3.499170406224E-04  3.075826914983E-04
  2.700266185144E-04  2.367512557864E-04  2.073061340277E-04  1.812839082148E-04
  1.583166762108E-04  1.380725703152E-04  1.202526046619E-04  1.045877623001E-04
  9.083630664995E-05  7.878130283517E-05  6.822833516969E-05  5.900340780237E-05
  5.095101621996E-05  4.393237796903E-05  3.782381158715E-05  3.251525333532E-05
  2.790890189802E-05  2.391798176781E-05  2.046561655814E-05  1.748380399374E-05
  1.491248481229E-05  1.269869827647E-05  1.079581744125E-05  9.162857749243E-06
  7.763852936702E-06  6.567292625199E-06  5.545616349450E-06  4.674759130164E-06
  3.933744042807E-06  3.304317558771E-06  2.770623744961E-06  2.318913701476E-06
  1.937286895175E-06  1.615461309662E-06  1.344569580010E-06  1.116978513696E-06
  9.261296180196E-07  7.663984592319E-07  6.329708701229E-07  5.217342012600E-07
  4.291819770681E-07  3.523304718737E-07  2.886458634812E-07  2.359807533202E-07
  1.925189632443E-07  1.567276302199E-07  1.273157219628E-07  1.031981896189E-07
  8.346505836533E-08  6.735483388295E-08  5.423167252421E-08  4.356582619112E-08
  3.491692993029E-08  2.791975152222E-08  2.227206834265E-08  1.772437793700E-08
  1.407118548634E-08  1.114364404295E-08  8.803352440893E-09  6.937141485586E-09
  5.452701715648E-09  4.274926008370E-09  3.342857842499E-09  2.607151393226E-09
  2.027963048002E-09  1.573205612247E-09  1.217106616454E-09  9.390209180581E-10
  7.224553737261E-10  5.542698851796E-10  4.240247240827E-10  3.234488394797E-10
  2.460079405618E-10  1.865546289355E-10  1.410457789127E-10  1.063152493879E-10
  7.989008999272E-11  5.984648468207E-11  4.469115719329E-11  3.326800050105E-11
  2.468523146529E-11  1.825728416133E-11  1.345880415940E-11  9.888507711197E-12
  7.240882070836E-12  5.284098069999E-12  3.842828227789E-12  2.784925617657E-12
  2.011130969343E-12  1.447146886344E-12  1.037555990298E-12  7.411703024616E-13
  5.274883347322E-13  3.740042131914E-13  2.641734439639E-13  1.858792268482E-13
  1.302810829675E-13  9.095366199161E-14  6.324506180110E-14  4.380056160094E-14
  3.021051492415E-14  2.075106868658E-14  1.419400411186E-14  9.667839814137E-15
  6.556795926152E-15  4.427605386312E-15  2.976720980783E-15  1.992397045463E-15
  1.327572570760E-15  8.805636858330E-16  5.813773838566E-16  3.820534961147E-16
  2.498797031925E-16  0.000000000000E+00  0.000000000000E+00  0.000000000000E+00
  0.000000000000E+00  0.000000000000E+00  0.000000000000E+00  0.000000000000E+00
  0.000000000000E+00  0.000000000000E+00  0.000000000000E+00  0.000000000000E+00
  0.000000000000E+00  0.000000000000E+00  0.000000000000E+00  0.000000000000E+00
  0.000000000000E+00  0.000000000000E+00  0.000000000000E+00  0.000000000000E+00
  0.000000000000E+00  0.000000000000E+00  0.000000000000E+00  0.000000000000E+00
  0.000000000000E+00  0.000000000000E+00  0.000000000000E+00  0.000000000000E+00
  0.000000000000E+00  0.000000000000E+00  0.000000000000E+00  0.000000000000E+00
  0.000000000000E+00  0.000000000000E+00  0.000000000000E+00  0.000000000000E+00
  0.000000000000E+00  0.000000000000E+00  0.000000000000E+00  0.000000000000E+00
  0.000000000000E+00  0.000000000000E+00  0.000000000000E+00  0.000000000000E+00
  0.000000000000E+00  0.000000000000E+00  0.000000000000E+00  0.000000000000E+00
  0.000000000000E+00  0.000000000000E+00  0.000000000000E+00  0.000000000000E+00
  0.000000000000E+00  0.000000000000E+00  0.000000000000E+00  0.000000000000E+00
  0.000000000000E+00  0.000000000000E+00  0.000000000000E+00  0.000000000000E+00
  0.000000000000E+00  0.000000000000E+00  0.000000000000E+00  0.000000000000E+00
  0.000000000000E+00  0.000000000000E+00  0.000000000000E+00  0.000000000000E+00
  0.000000000000E+00  0.000000000000E+00  0.000000000000E+00  0.000000000000E+00
  0.000000000000E+00  0.000000000000E+00  0.000000000000E+00  0.000000000000E+00
  0.000000000000E+00  0.000000000000E+00  0.000000000000E+00  0.000000000000E+00
  0.000000000000E+00
</data>
</radfunc>
</valence-charge>
<semilocal-potentials set="lj">
<slps n="2" l="s" j="0.5" rc="1.31204028561" eref="-1.33028926553">
<radfunc>
<data npts="256">
 -1.330010820579E+01 -1.330083506754E+01 -1.330296705967E+01 -1.330639454828E+01
 -1.331090243566E+01 -1.331640047371E+01 -1.332275350913E+01 -1.332920860107E+01
 -1.333552825572E+01 -1.334178585064E+01 -1.334758353838E+01 -1.335258140092E+01
 -1.335708052306E+01 -1.336026725703E+01 -1.336238860772E+01 -1.336305841694E+01
 -1.336238206647E+01 -1.336058593438E+01 -1.335749251735E+01 -1.335293829511E+01
 -1.334676555149E+01 -1.334056163673E+01 -1.333315528505E+01 -1.332448052037E+01
 -1.331447672386E+01 -1.330308856012E+01 -1.329026559480E+01 -1.327967884416E+01
 -1.326824069538E+01 -1.325593362375E+01 -1.324274048757E+01 -1.322864412823E+01
 -1.321362691519E+01 -1.319767023101E+01 -1.318075388886E+01 -1.316285547209E+01
 -1.314394958182E+01 -1.312400697545E+01 -1.311011935504E+01 -1.309574442739E+01
 -1.308086932299E+01 -1.306547963677E+01 -1.304955922114E+01 -1.303308995799E+01
 -1.301605150766E+01 -1.299842103331E+01 -1.298017289914E+01 -1.296127834122E+01
 -1.294170511025E+01 -1.292141708615E+01 -1.290037386534E+01 -1.287853032285E+01
 -1.285583615293E+01 -1.283223539385E+01 -1.280766594512E+01 -1.278205908803E+01
 -1.275533902405E+01 -1.272742244879E+01 -1.269821818335E+01 -1.266762688827E+01
 -1.263554088833E+01 -1.260184413872E+01 -1.256641236329E+01 -1.252911339435E+01
 -1.248980773843E+01 -1.244834938546E+01 -1.240458686691E+01 -1.238179303418E+01
 -1.235836455483E+01 -1.233428157404E+01 -1.230952417619E+01 -1.228407244068E+01
 -1.225790649896E+01 -1.223100659215E+01 -1.220335312844E+01 -1.217492673981E+01
 -1.214570833705E+01 -1.211567916264E+01 -1.208482084059E+01 -1.205311542267E+01
 -1.202054543043E+01 -1.198709389239E+01 -1.195274437607E+01 -1.191748101436E+01
 -1.188128852609E+01 -1.184415223071E+01 -1.180605805682E+01 -1.176699254503E+01
 -1.172694284502E+01 -1.168589670733E+01 -1.164384247023E+01 -1.160076904215E+01
 -1.155666588032E+01 -1.151152296603E+01 -1.146533077738E+01 -1.141808025998E+01
 -1.136976279627E+01 -1.132037017410E+01 -1.126989455507E+01 -1.121832844316E+01
 -1.116566465406E+01 -1.111189628565E+01 -1.105701668981E+01 -1.100101944596E+01
 -1.094389833639E+01 -1.088564732362E+01 -1.082626052983E+01 -1.076573221851E+01
 -1.070405677844E+01 -1.064122871006E+01 -1.057724261446E+01 -1.051209318531E+01
 -1.044577520386E+01 -1.037828353774E+01 -1.030961314402E+01 -1.023975907733E+01
 -1.016871650416E+01 -1.009648072438E+01 -1.002304720165E+01 -9.948411604281E+00
 -9.872569858712E+00 -9.795518217919E+00 -9.717253347374E+00 -9.637772431612E+00
 -9.557073304726E+00 -9.475154608460E+00 -9.392015981932E+00 -9.307658287295E+00
 -9.222083875952E+00 -9.135296900206E+00 -9.047303675388E+00 -8.958113097651E+00
 -8.867737122662E+00 -8.776191310319E+00 -8.683495440403E+00 -8.589674203676E+00
 -8.494757972307E+00 -8.398783652650E+00 -8.301795622210E+00 -8.203846751140E+00
 -8.104999506657E+00 -8.005327136471E+00 -7.904914924416E+00 -7.803861508187E+00
 -7.702280245160E+00 -7.600300607914E+00 -7.498069586197E+00 -7.395753066839E+00
 -7.293537157577E+00 -7.191629415228E+00 -7.090259933245E+00 -6.989682238808E+00
 -6.890173945644E+00 -6.792037106123E+00 -6.695598205345E+00 -6.601207741436E+00
 -6.509239340633E+00 -6.420088363357E+00 -6.334169978748E+00 -6.251916562891E+00
 -6.173774524276E+00 -6.100202947749E+00 -6.029414787965E+00 -5.959201454059E+00
 -5.889594659587E+00 -5.820587298950E+00 -5.752175638002E+00 -5.684358267025E+00
 -5.617136454401E+00 -5.550514399872E+00 -5.484499474439E+00 -5.419102413737E+00
 -5.354337428652E+00 -5.290222190055E+00 -5.226777639352E+00 -5.164027574313E+00
 -5.101997961831E+00 -5.040715938257E+00 -4.980208476303E+00 -4.920500728030E+00
 -4.861614018000E+00 -4.803564644792E+00 -4.746362461257E+00 -4.689991613377E+00
 -4.634376267109E+00 -4.579429530873E+00 -4.525127017643E+00 -4.471469225117E+00
 -4.418447626555E+00 -4.366054757766E+00 -4.314283157364E+00 -4.263125457951E+00
 -4.212574379512E+00 -4.162622728380E+00 -4.113263396212E+00 -4.064489358984E+00
 -4.016293675985E+00 -3.968669488837E+00 -3.921610020521E+00 -3.875108574396E+00
 -3.829158533275E+00 -3.783753358470E+00 -3.738886588847E+00 -3.694551839933E+00
 -3.650742802987E+00 -3.607453244114E+00 -3.564677003367E+00 -3.522407993875E+00
 -3.480640200974E+00 -3.439367681347E+00 -3.398584562177E+00 -3.358285040309E+00
 -3.318463381419E+00 -3.279113919200E+00 -3.240231054546E+00 -3.201809254756E+00
 -3.163843052743E+00 -3.126327046252E+00 -3.089255897086E+00 -3.052624330348E+00
 -3.016427133682E+00 -2.980659156534E+00 -2.945315309410E+00 -2.910390563157E+00
 -2.875879948238E+00 -2.841778554027E+00 -2.808081528109E+00 -2.774784075588E+00
 -2.741881458403E+00 -2.709368994655E+00 -2.677242057939E+00 -2.645496076688E+00
 -2.614126533524E+00 -2.583128964612E+00 -2.552498959034E+00 -2.522232158154E+00
 -2.492324255008E+00 -2.462770993690E+00 -2.433568168745E+00 -2.404711624583E+00
 -2.376197254881E+00 -2.348021002005E+00 -2.320178856436E+00 -2.292666856201E+00
 -2.265481086313E+00 -2.238617678213E+00 -2.212072809223E+00 -2.185842702007E+00
 -2.159923624029E+00 -2.134311887027E+00 -2.109003846488E+00 -2.083995901130E+00
 -2.059284492389E+00 -2.034866103913E+00 -2.010737261062E+00 -1.986894530411E+00
</data>
</radfunc>
</slps>
<slps n="2" l="p" j="1.5" rc="1.70576203900" eref="-0.486377419277">
<radfunc>
<data npts="256">
 -1.860894945215E+01 -1.860950488471E+01 -1.861112439629E+01 -1.861369682133E+01
 -1.861701573129E+01 -1.862095013024E+01 -1.862530989719E+01 -1.862948192835E+01
 -1.863323376144E+01 -1.863649584280E+01 -1.863891573944E+01 -1.864024056052E+01
 -1.864029834209E+01 -1.863884389328E+01 -1.863548677412E+01 -1.863068151922E+01
 -1.862369588245E+01 -1.861591462650E+01 -1.860608739182E+01 -1.859395830563E+01
 -1.857926623975E+01 -1.856548954497E+01 -1.854976669031E+01 -1.853196014708E+01
 -1.851193114701E+01 -1.848953905286E+01 -1.846464038222E+01 -1.844423281909E+01
 -1.842226801758E+01 -1.839867932083E+01 -1.837339724544E+01 -1.834634889650E+01
 -1.831745731887E+01 -1.828664077950E+01 -1.825381197253E+01 -1.821887713585E+01
 -1.818173506436E+01 -1.814227600115E+01 -1.811462414369E+01 -1.808585147009E+01
 -1.805591742328E+01 -1.802477879485E+01 -1.799238947552E+01 -1.795870018185E+01
 -1.792365815746E+01 -1.788720684656E+01 -1.784928553784E+01 -1.780982897720E+01
 -1.776876694792E+01 -1.772602381782E+01 -1.768151805338E+01 -1.763516170254E+01
 -1.758685984890E+01 -1.753651004216E+01 -1.748400171231E+01 -1.742921557735E+01
 -1.737202305807E+01 -1.731228571672E+01 -1.724985474025E+01 -1.718457049232E+01
 -1.711626216149E+01 -1.704474753516E+01 -1.696983292962E+01 -1.689131330498E+01
 -1.680897258992E+01 -1.672258423386E+01 -1.663191199392E+01 -1.658489318685E+01
 -1.653671095033E+01 -1.648733351423E+01 -1.643672872845E+01 -1.638486410950E+01
 -1.633170688836E+01 -1.627722405902E+01 -1.622138242727E+01 -1.616414865885E+01
 -1.610548932664E+01 -1.604537095603E+01 -1.598376006817E+01 -1.592062322029E+01
 -1.585592704289E+01 -1.578963827335E+01 -1.572172378565E+01 -1.565215061621E+01
 -1.558088598572E+01 -1.550789731719E+01 -1.543315225043E+01 -1.535661865352E+01
 -1.527826463161E+01 -1.519805853407E+01 -1.511596896056E+01 -1.503196476710E+01
 -1.494601507314E+01 -1.485808927089E+01 -1.476815703784E+01 -1.467618835400E+01
 -1.458215352497E+01 -1.448602321216E+01 -1.438776847143E+01 -1.428736080154E+01
 -1.418477220345E+01 -1.407997525198E+01 -1.397294318075E+01 -1.386364998184E+01
 -1.375207052115E+01 -1.363818067066E+01 -1.352195745878E+01 -1.340337923977E+01
 -1.328242588359E+01 -1.315907898707E+01 -1.303332210786E+01 -1.290514102217E+01
 -1.277452400773E+01 -1.264146215313E+01 -1.250594969503E+01 -1.236798438461E+01
 -1.222756788461E+01 -1.208470619857E+01 -1.193941013348E+01 -1.179169579754E+01
 -1.164158513398E+01 -1.148910649249E+01 -1.133429523891E+01 -1.117719440416E+01
 -1.101785537248E+01 -1.085633860897E+01 -1.069271442568E+01 -1.052706378458E+01
 -1.035947913498E+01 -1.019006528187E+01 -1.001894028011E+01 -9.846236347981E+00
 -9.672100791721E+00 -9.496696930414E+00 -9.320205008353E+00 -9.142823079091E+00
 -8.964767842366E+00 -8.786275411712E+00 -8.607601986856E+00 -8.429024401086E+00
 -8.250840509630E+00 -8.073369380875E+00 -7.896951248073E+00 -7.721947175184E+00
 -7.548738386984E+00 -7.377725210713E+00 -7.209325574740E+00 -7.043973009353E+00
 -6.882114096240E+00 -6.724205317015E+00 -6.570709257734E+00 -6.422090136108E+00
 -6.278808631552E+00 -6.141316015494E+00 -6.010047600619E+00 -5.885415552810E+00
 -5.767801138023E+00 -5.657546507455E+00 -5.554946166824E+00 -5.460238170645E+00
 -5.373595341980E+00 -5.295119109314E+00 -5.224836969637E+00 -5.162690653984E+00
 -5.108519969940E+00 -5.062061683662E+00 -5.022950554759E+00 -4.990716239763E+00
 -4.964783376047E+00 -4.944473451011E+00 -4.929008600491E+00 -4.917517311522E+00
 -4.909041958119E+00 -4.902548058373E+00 -4.896935117499E+00 -4.891048920005E+00
 -4.883695160102E+00 -4.873654357636E+00 -4.859698100735E+00 -4.840606787960E+00
 -4.815189130850E+00 -4.782305002102E+00 -4.740891174531E+00 -4.689973047350E+00
 -4.634376267109E+00 -4.579429530873E+00 -4.525127017643E+00 -4.471469225117E+00
 -4.418447626555E+00 -4.366054757766E+00 -4.314283157364E+00 -4.263125457951E+00
 -4.212574379512E+00 -4.162622728380E+00 -4.113263396212E+00 -4.064489358984E+00
 -4.016293675985E+00 -3.968669488837E+00 -3.921610020521E+00 -3.875108574396E+00