<?xml version="1.0" encoding="UTF-8" ?>
<psml version="1.1" energy_unit="hartree" length_unit="bohr"
 uuid="f6f42bb0-53a0-11e8-645a-e5f6f6af1789"
 xmlns="http://esl.cecam.org/PSML/ns/1.1">
<provenance creator="ONCVPSP-3.3.0+psml-3.3.0-73 (fully-relativistic)"
 date="2018-05-09">
<annotation action="semilocal-pseudopotential-generation"
 action-cont="projectors-generation" />
<input-file name="oncvpsp-input">
<![CDATA[# atsym z nc nv iexc psfile
Kr 36 6 2 -116133 upf
# n l f
1 0 2.0
2 0 2.0
2 1 6.0
3 0 2.0
3 1 6.0
3 2 10.0
4 0 2.0
4 1 6.0
# lmax
2
# l rc ep ncon nbas qcut
0 1.75 0.0 4 8 6.1
1 1.5 0.0 4 7 7.0
2 1.8 0.1 4 7 7.6
# lloc lpopt rc5 dvloc0
4 5 1.5 0.0
# l nproj debl
0 2 3.0
1 2 3.0
2 2 4.0
# icmod fcfact
3 7.0 1.24
# epsh1 epsh2 depsh
-12.0 12.0 0.02
# rlmax drl
6.0 0.01
 0
]]>
</input-file>
</provenance>
<pseudo-atom-spec atomic-label="Kr" atomic-number="36" z-pseudo="8"
 flavor="Hamann&apos;s oncvpsp" relativity="dirac" spin-dft="no"
 core-corrections="yes">
<annotation pseudo-energy="-18.5429043574" />
<exchange-correlation>
<annotation oncvpsp-xc-code="-116133" oncvpsp-xc-type="libxc-interface" />
<libxc-info number-of-functionals="2">
<functional name="Perdew, Burke &amp; Ernzerhof SOL (GGA)" type="exchange"
 id="116" />
<functional name="Perdew, Burke &amp; Ernzerhof SOL (GGA)" type="correlation"
 id="133" />
</libxc-info>
</exchange-correlation>
<valence-configuration total-valence-charge="8">
<shell n="4" l="s" occupation="2" />
<shell n="4" l="p" occupation="6" />
</valence-configuration>
</pseudo-atom-spec>
<grid npts="457">
<annotation type="sampled from oncvpsp log grid"
 recipe="r(i:1..N) = r1*exp(a*(i-1)) + r=0; resampled"
 recipe-cont="r1: scale; a: step" scale="0.138888888889E-04"
 step="0.119285708653E-01" delta="0.500000000000E-02" rmax="44.0768648367" />
<grid-data>
  0.000000000000E+00  5.033159350498E-03  1.005334081446E-02  1.508161433186E-02
  2.032172843085E-02  2.549120590227E-02  3.085166315597E-02  3.602676308192E-02
  4.107815044163E-02  4.628241435380E-02  5.152768351151E-02  5.668716249522E-02
  6.236326131450E-02  6.779417908512E-02  7.282415956102E-02  7.822733879719E-02
  8.403140622808E-02  8.919575662272E-02  9.467749448230E-02  1.004961256101E-01
  1.066723545851E-01  1.118855320508E-01  1.173534823618E-01  1.230886565046E-01
  1.291041139573E-01  1.354135524264E-01  1.420313390386E-01  1.472060702126E-01
  1.525693361347E-01  1.581280058285E-01  1.638891985821E-01  1.698602930653E-01
  1.760489367809E-01  1.824630558582E-01  1.891108652054E-01  1.960008790302E-01
  2.031419217445E-01  2.105431392668E-01  2.156264928212E-01  2.208325788639E-01
  2.261643606480E-01  2.316248729715E-01  2.372172239045E-01  2.429445965584E-01
  2.488102508977E-01  2.548175255954E-01  2.609698399334E-01  2.672706957487E-01
  2.737236794269E-01  2.803324639430E-01  2.871008109524E-01  2.940325729321E-01
  3.011316953729E-01  3.084022190260E-01  3.158482822022E-01  3.234741231277E-01
  3.312840823565E-01  3.392826052409E-01  3.474742444618E-01  3.558636626201E-01
  3.644556348904E-01  3.732550517392E-01  3.822669217084E-01  3.914963742661E-01
  4.009486627264E-01  4.106291672393E-01  4.205433978531E-01  4.255899186273E-01
  4.306969976508E-01  4.358653616227E-01  4.410957459621E-01  4.463888949137E-01
  4.517455616526E-01  4.571665083925E-01  4.626525064932E-01  4.682043365711E-01
  4.738227886099E-01  4.795086620733E-01  4.852627660181E-01  4.910859192104E-01
  4.969789502409E-01  5.029426976438E-01  5.089780100155E-01  5.150857461357E-01
  5.212667750893E-01  5.275219763904E-01  5.338522401071E-01  5.402584669884E-01
  5.467415685922E-01  5.533024674153E-01  5.599420970243E-01  5.666614021886E-01
  5.734613390149E-01  5.803428750830E-01  5.873069895840E-01  5.943546734590E-01
  6.014869295406E-01  6.087047726950E-01  6.160092299674E-01  6.234013407270E-01
  6.308821568157E-01  6.384527426975E-01  6.461141756099E-01  6.538675457172E-01
  6.617139562658E-01  6.696545237410E-01  6.776903780259E-01  6.858226625622E-01
  6.940525345129E-01  7.023811649271E-01  7.108097389062E-01  7.193394557731E-01
  7.279715292424E-01  7.367071875933E-01  7.455476738444E-01  7.544942459305E-01
  7.635481768817E-01  7.727107550043E-01  7.819832840643E-01  7.913670834731E-01
  8.008634884748E-01  8.104738503365E-01  8.201995365405E-01  8.300419309790E-01
  8.400024341508E-01  8.500824633606E-01  8.602834529209E-01  8.706068543559E-01
  8.810541366082E-01  8.916267862475E-01  9.023263076825E-01  9.131542233747E-01
  9.241120740552E-01  9.352014189438E-01  9.464238359711E-01  9.577809220028E-01
  9.692742930668E-01  9.809055845836E-01  9.926764515986E-01  1.004588569018E+00
  1.016643631846E+00  1.028843355428E+00  1.041189475693E+00  1.053683749402E+00
  1.066327954394E+00  1.079123889847E+00  1.092073376525E+00  1.105178257044E+00
  1.118440396128E+00  1.131861680882E+00  1.145444021052E+00  1.159189349305E+00
  1.173099621497E+00  1.187176816955E+00  1.201422938758E+00  1.215840014023E+00
  1.230430094191E+00  1.245195255322E+00  1.260137598386E+00  1.275259249566E+00
  1.290562360561E+00  1.306049108888E+00  1.321721698194E+00  1.337582358573E+00
  1.353633346876E+00  1.369876947038E+00  1.386315470403E+00  1.402951256047E+00
  1.419786671120E+00  1.436824111173E+00  1.454066000507E+00  1.471514792514E+00
  1.489172970024E+00  1.507043045664E+00  1.525127562212E+00  1.543429092958E+00
  1.561950242074E+00  1.580693644979E+00  1.599661968719E+00  1.618857912343E+00
  1.638284207291E+00  1.657943617779E+00  1.677838941192E+00  1.697973008487E+00
  1.718348684588E+00  1.738968868803E+00  1.759836495229E+00  1.780954533172E+00
  1.802325987570E+00  1.823953899421E+00  1.845841346214E+00  1.867991442368E+00
  1.890407339677E+00  1.913092227753E+00  1.936049334486E+00  1.959281926500E+00
  1.982793309618E+00  2.006586829333E+00  2.030665871285E+00  2.055033861741E+00
  2.079694268081E+00  2.104650599298E+00  2.129906406490E+00  2.155465283368E+00
  2.181330866768E+00  2.207506837170E+00  2.233996919216E+00  2.260804882246E+00
  2.287934540833E+00  2.315389755323E+00  2.343174432387E+00  2.371292525576E+00
  2.399748035883E+00  2.428545012313E+00  2.457687552461E+00  2.487179803090E+00
  2.517025960727E+00  2.547230272256E+00  2.577797035523E+00  2.608730599950E+00
  2.640035367149E+00  2.671715791555E+00  2.703776381053E+00  2.736221697626E+00
  2.769056357998E+00  2.802285034294E+00  2.835912454705E+00  2.869943404162E+00
  2.904382725011E+00  2.939235317712E+00  2.974506141524E+00  3.010200215222E+00
  3.046322617805E+00  3.082878489219E+00  3.119873031089E+00  3.157311507462E+00
  3.195199245552E+00  3.233541636499E+00  3.272344136137E+00  3.311612265770E+00
  3.351351612959E+00  3.391567832315E+00  3.432266646303E+00  3.473453846058E+00
  3.515135292211E+00  3.557316915718E+00  3.600004718706E+00  3.643204775331E+00
  3.686923232635E+00  3.731166311426E+00  3.775940307163E+00  3.821251590849E+00
  3.867106609940E+00  3.913511889259E+00  3.960474031930E+00  4.007999720313E+00
  4.056095716957E+00  4.104768865560E+00  4.154026091947E+00  4.203874405050E+00
  4.254320897911E+00  4.305372748686E+00  4.357037221670E+00  4.409321668330E+00
  4.462233528350E+00  4.515780330690E+00  4.569969694659E+00  4.624809330995E+00
  4.680307042967E+00  4.736470727482E+00  4.793308376212E+00  4.850828076726E+00
  4.909038013647E+00  4.967946469811E+00  5.027561827449E+00  5.087892569378E+00
  5.148947280211E+00  5.210734647573E+00  5.273263463344E+00  5.336542624904E+00
  5.400581136403E+00  5.465388110040E+00  5.530972767360E+00  5.597344440569E+00
  5.664512573855E+00  5.732486724742E+00  5.801276565439E+00  5.870891884224E+00
  5.941342586835E+00  6.012638697877E+00  6.084790362251E+00  6.157807846598E+00
  6.231701540757E+00  6.306481959246E+00  6.382159742757E+00  6.458745659670E+00
  6.536250607586E+00  6.614685614878E+00  6.694061842256E+00  6.774390584363E+00
  6.855683271375E+00  6.937951470632E+00  7.021206888280E+00  7.105461370939E+00
  7.190726907390E+00  7.277015630279E+00  7.364339817842E+00  7.452711895656E+00
  7.542144438404E+00  7.632650171665E+00  7.724241973725E+00  7.816932877410E+00
  7.910736071939E+00  8.005664904802E+00  8.101732883660E+00  8.198953678263E+00
  8.297341122403E+00  8.396909215871E+00  8.497672126462E+00  8.599644191979E+00
  8.702839922283E+00  8.807274001351E+00  8.912961289367E+00  9.019916824839E+00
  9.128155826737E+00  9.237693696658E+00  9.348546021018E+00  9.460728573270E+00
  9.574257316149E+00  9.689148403943E+00  9.805418184791E+00  9.923083203008E+00
  1.004216020144E+01  1.016266612386E+01  1.028461811735E+01  1.040803353476E+01
  1.053292993717E+01  1.065932509642E+01  1.078723699758E+01  1.091668384155E+01
  1.104768404765E+01  1.118025625622E+01  1.131441933129E+01  1.145019236327E+01
  1.158759467163E+01  1.172664580769E+01  1.186736555738E+01  1.200977394407E+01
  1.215389123140E+01  1.229973792617E+01  1.244733478129E+01  1.259670279866E+01
  1.274786323225E+01  1.290083759103E+01  1.305564764213E+01  1.321231541383E+01
  1.337086319880E+01  1.353131355718E+01  1.369368931987E+01  1.385801359171E+01
  1.402430975481E+01  1.419260147187E+01  1.436291268953E+01  1.453526764180E+01
  1.470969085350E+01  1.488620714375E+01  1.506484162947E+01  1.524561972902E+01
  1.542856716577E+01  1.561370997176E+01  1.580107449142E+01  1.599068738532E+01
  1.618257563394E+01  1.637676654155E+01  1.657328774005E+01  1.677216719293E+01
  1.697343319925E+01  1.717711439764E+01  1.738323977041E+01  1.759183864765E+01
  1.780294071142E+01  1.801657599996E+01  1.823277491196E+01  1.845156821091E+01
  1.867298702944E+01  1.889706287379E+01  1.912382762827E+01  1.935331355981E+01
  1.958555332253E+01  1.982057996240E+01  2.005842692195E+01  2.029912804501E+01
  2.054271758155E+01  2.078923019253E+01  2.103870095484E+01  2.129116536630E+01
  2.154665935070E+01  2.180521926291E+01  2.206688189406E+01  2.233168447679E+01
  2.259966469051E+01  2.287086066680E+01  2.314531099480E+01  2.342305472674E+01
  2.370413138346E+01  2.398858096006E+01  2.427644393158E+01  2.456776125876E+01
  2.486257439386E+01  2.516092528659E+01  2.546285639003E+01  2.576841066671E+01
  2.607763159471E+01  2.639056317385E+01  2.670724993193E+01  2.702773693112E+01
  2.735206977429E+01  2.768029461158E+01  2.801245814692E+01  2.834860764468E+01
  2.868879093642E+01  2.903305642766E+01  2.938145310479E+01  2.973403054204E+01
  3.009083890855E+01  3.045192897545E+01  3.081735212316E+01  3.118716034863E+01
  3.156140627282E+01  3.194014314809E+01  3.232342486587E+01  3.271130596426E+01
  3.310384163583E+01  3.350108773546E+01  3.390310078829E+01  3.430993799775E+01
  3.472165725372E+01  3.513831714076E+01  3.555997694645E+01  3.598669666981E+01
  3.641853702985E+01  3.685555947421E+01  3.729782618790E+01  3.774540010215E+01
  3.819834490338E+01  3.865672504222E+01  3.912060574272E+01  3.959005301164E+01
  4.006513364778E+01  4.054591525155E+01  4.103246623457E+01  4.152485582938E+01
  4.202315409934E+01  4.252743194853E+01  4.303776113191E+01  4.355421426549E+01
  4.407686483668E+01
</grid-data>
</grid>
<valence-charge total-charge="8" is-unscreening-charge="yes"
 rescaled-to-z-pseudo="no">
<radfunc>
<data npts="457">
  1.705254737841E-02  1.709490938677E-02  1.722162032736E-02  1.743327369332E-02
  1.774441898082E-02  1.814242622652E-02  1.865130405803E-02  1.923624903249E-02
  1.989681133031E-02  2.067095265143E-02  2.154848213171E-02  2.250824348858E-02
  2.367645253007E-02  2.490622325704E-02  2.614464643795E-02  2.758344422314E-02
  2.925665215894E-02  3.085891950272E-02  3.267910682590E-02  3.474876215233E-02
  3.710445652818E-02  3.922328928268E-02  4.157717080931E-02  4.419429846065E-02
  4.710662336534E-02  5.035040550757E-02  5.396685669157E-02  5.695173969397E-02
  6.019466698234E-02  6.372010884333E-02  6.755509825573E-02  7.172951894114E-02
  7.627642586037E-02  8.123240134450E-02  8.663795019799E-02  9.253793721201E-02
  9.898207055679E-02  1.060254344560E-01  1.110837978830E-01  1.164551711388E-01
  1.221606373515E-01  1.282227690181E-01  1.346657289739E-01  1.415153765535E-01
  1.487993788671E-01  1.565473270351E-01  1.647908571205E-01  1.735637753861E-01
  1.829021873554E-01  1.928446299955E-01  2.034322061431E-01  2.147087200689E-01
  2.267208128135E-01  2.395180956277E-01  2.531532795045E-01  2.676822983976E-01
  2.831644232797E-01  2.996623636926E-01  3.172423528870E-01  3.359742120279E-01
  3.559313882628E-01  3.771909607023E-01  3.998336075542E-01  4.239435267819E-01
  4.496083017379E-01  4.769187022485E-01  5.059684106295E-01  5.211754906140E-01
  5.368536610910E-01  5.530152746826E-01  5.696727799855E-01  5.868387008202E-01
  6.045256133806E-01  6.227461211623E-01  6.415128275463E-01  6.608383059156E-01
  6.807350671766E-01  7.012155245601E-01  7.222919555740E-01  7.439764609818E-01
  7.662809206817E-01  7.892169463636E-01  8.127958308259E-01  8.370284938360E-01
  8.619254244274E-01  8.874966195311E-01  9.137515188496E-01  9.406989358911E-01
  9.683469850944E-01  9.967030049895E-01  1.025773477355E+00  1.055563942349E+00
  1.086078909624E+00  1.117321765431E+00  1.149294675788E+00  1.181998485767E+00
  1.215432615032E+00  1.249594949757E+00  1.284481731123E+00  1.320087440607E+00
  1.356404682340E+00  1.393424062855E+00  1.431134068583E+00  1.469520941544E+00
  1.508568553688E+00  1.548258280460E+00  1.588568874179E+00  1.629476337921E+00
  1.670953800652E+00  1.712971394443E+00  1.755496134652E+00  1.798491804075E+00
  1.841918842103E+00  1.885734240045E+00  1.929891443824E+00  1.974340265353E+00
  2.019026803985E+00  2.063893379474E+00  2.108878477995E+00  2.153916712829E+00
  2.198938801364E+00  2.243871560135E+00  2.288637919686E+00  2.333156961022E+00
  2.377343975500E+00  2.421110549972E+00  2.464364678983E+00  2.507010905824E+00
  2.548950494128E+00  2.590081631684E+00  2.630299667947E+00  2.669497386671E+00
  2.707565314811E+00  2.744392068725E+00  2.779864738356E+00  2.813869309839E+00
  2.846291126614E+00  2.877015388706E+00  2.905927689445E+00  2.932914588386E+00
  2.957864218652E+00  2.980666926373E+00  3.001215939275E+00  3.019408060817E+00
  3.035144385604E+00  3.048331031125E+00  3.058879880146E+00  3.066709327397E+00
  3.071745023519E+00  3.073920608590E+00  3.073178426963E+00  3.069470214634E+00
  3.062757749940E+00  3.053013458085E+00  3.040220959838E+00  3.024375554747E+00
  3.005484629390E+00  2.983567981601E+00  2.958658052186E+00  2.930800056519E+00
  2.900052009454E+00  2.866484638348E+00  2.830181180502E+00  2.791237063133E+00
  2.749759465943E+00  2.705866768477E+00  2.659687886721E+00  2.611361505711E+00
  2.561035217243E+00  2.508864574055E+00  2.455012073958E+00  2.399646089329E+00
  2.342939758978E+00  2.285069860649E+00  2.226215392213E+00  2.166554961221E+00
  2.106263568231E+00  2.045511321487E+00  1.984463025151E+00  1.923277184487E+00
  1.862105321970E+00  1.801091333089E+00  1.740370935433E+00  1.680071215597E+00
  1.620310280966E+00  1.561197021809E+00  1.502830987069E+00  1.445302515531E+00
  1.388693547667E+00  1.333078798201E+00  1.278526062855E+00  1.225096160517E+00
  1.172843192596E+00  1.121814715911E+00  1.072051951849E+00  1.023590010466E+00
  9.764581288932E-01  9.306799216565E-01  8.862736410161E-01  8.432524449218E-01
  8.016246707312E-01  7.613941127611E-01  7.225603018836E-01  6.851187854929E-01
  6.490614062903E-01  6.143765784587E-01  5.810495599201E-01  5.490627194947E-01
  5.183957979046E-01  4.890261616822E-01  4.609290491750E-01  4.340778078974E-01
  4.084441227371E-01  3.839982343672E-01  3.607091476660E-01  3.385448296890E-01
  3.174723970670E-01  2.974582926894E-01  2.784684516274E-01  2.604684563208E-01
  2.434236811168E-01  2.272994263093E-01  2.120610418762E-01  1.976740411645E-01
  1.841042048088E-01  1.713176752080E-01  1.592810419155E-01  1.479614183200E-01
  1.373265100186E-01  1.273446752940E-01  1.179849781223E-01  1.092172341383E-01
  1.010120499888E-01  9.334085650004E-02  8.617593607572E-02  7.949044473174E-02
  7.325842915908E-02  6.745483918771E-02  6.205553600569E-02  5.703729646701E-02
  5.237781380015E-02  4.805569500895E-02  4.405045523694E-02  4.034250934783E-02
  3.691316095809E-02  3.374458914280E-02  3.081983302360E-02  2.812277443743E-02
  2.563811887654E-02  2.335137488389E-02  2.124883208322E-02  1.931753801882E-02
  1.754527397713E-02  1.592052995844E-02  1.443247896401E-02  1.307095075975E-02
  1.182640527286E-02  1.068990577235E-02  9.653091977464E-03  8.708153230966E-03
  7.847801864973E-03  7.065246878295E-03  6.354168033735E-03  5.708690473332E-03
  5.123359938489E-03  4.593118670727E-03  4.113282057634E-03  3.679516077524E-03
  3.287815585589E-03  2.934483474071E-03  2.616110729232E-03  2.329557398881E-03
  2.071934475852E-03  1.840586695341E-03  1.633076237266E-03  1.447167318992E-03
  1.280811658717E-03  1.132134785658E-03  9.994231697697E-04  8.811121411197E-04
  7.757745670813E-04  6.821102542411E-04  5.989360411618E-04  5.251765479154E-04
  4.598555484738E-04  4.020879325672E-04  3.510722244175E-04  3.060836267542E-04
  2.664675596759E-04  2.316336651738E-04  2.010502494363E-04  1.742391363833E-04
  1.507709071964E-04  1.302605018948E-04  1.123631602534E-04  9.677068054528E-05
  8.320797572293E-05  7.142990771706E-05  6.121838154616E-05  5.237968187958E-05
  4.474203559957E-05  3.815338476108E-05  3.247935515984E-05  2.760140649347E-05
  2.341515084170E-05  1.982882690360E-05  1.676191811658E-05  1.414390344417E-05
  1.191313026152E-05  1.001579938852E-05  8.405052922901E-06  7.040156108215E-06
  5.885765036295E-06  4.911272528510E-06  4.090225065905E-06  3.399804143830E-06
  2.820365911756E-06  2.335033423060E-06  1.929336262130E-06  1.590892736939E-06
  1.309130223922E-06  1.075039628523E-06  8.809602791439E-07  7.203919045674E-07
  5.878306555974E-07  4.786264210011E-07  3.888589564551E-07  3.152305936803E-07
  2.549735260564E-07  2.057698775220E-07  1.656829543643E-07  1.330982554835E-07
  1.066729768231E-07  8.529289085152E-08  6.803561321711E-08  5.413938694796E-08
  4.297662077085E-08  3.403151320760E-08  2.688117896707E-08  2.117976965035E-08
  1.664514774682E-08  1.304773210259E-08  1.020118522491E-08  7.954658638248E-09
  6.186352672041E-09  4.798182134878E-09  3.711369864016E-09  2.862816639549E-09
  2.202118880151E-09  1.689125312756E-09  1.291940812032E-09  9.853001800478E-10
  7.492470901483E-10  5.680640268194E-10  4.294080605255E-10  3.236149202516E-10
  2.431402588237E-10  1.821124157626E-10  1.359755173951E-10  1.012055432987E-10
  7.508514413907E-11  5.552561579282E-11  4.092660220298E-11  3.006588678009E-11
  2.201310106101E-11  1.606238241242E-11  1.167999454775E-11  8.463723376907E-12
  6.111508150728E-12  4.397290813519E-12  3.152487372773E-12  2.251822637760E-12
  1.602539394165E-12  1.136207811606E-12  8.025312028187E-13  5.646788470376E-13
  3.957825492479E-13  2.763167055516E-13  1.921465640894E-13  1.330798904477E-13
  9.179640558599E-14  6.305959696284E-14  4.313875069664E-14  2.938685566501E-14
  1.993360830959E-14  1.346305930961E-14  9.053242652503E-15  6.061001300620E-15
  4.039628003293E-15  2.680228775188E-15  1.770158887620E-15  1.163693603504E-15
  7.614245594609E-16  4.958524577689E-16  3.213591134089E-16  2.072603403565E-16
  1.330159600944E-16  8.494296175842E-17  5.397104794830E-17  3.411750759432E-17
  2.145602653684E-17  1.342296729091E-17  7.284621555577E-18  4.517972754254E-18
  0.000000000000E+00  0.000000000000E+00  0.000000000000E+00  0.000000000000E+00
  0.000000000000E+00  0.000000000000E+00  0.000000000000E+00  0.000000000000E+00
  0.000000000000E+00  0.000000000000E+00  0.000000000000E+00  0.000000000000E+00
  0.000000000000E+00  0.000000000000E+00  0.000000000000E+00  0.000000000000E+00
  0.000000000000E+00  0.000000000000E+00  0.000000000000E+00  0.000000000000E+00
  0.000000000000E+00  0.000000000000E+00  0.000000000000E+00  0.000000000000E+00
  0.000000000000E+00  0.000000000000E+00  0.000000000000E+00  0.000000000000E+00
  0.000000000000E+00  0.000000000000E+00  0.000000000000E+00  0.000000000000E+00
  0.000000000000E+00  0.000000000000E+00  0.000000000000E+00  0.000000000000E+00
  0.000000000000E+00  0.000000000000E+00  0.000000000000E+00  0.000000000000E+00
  0.000000000000E+00  0.000000000000E+00  0.000000000000E+00  0.000000000000E+00
  0.000000000000E+00  0.000000000000E+00  0.000000000000E+00  0.000000000000E+00
  0.000000000000E+00  0.000000000000E+00  0.000000000000E+00  0.000000000000E+00
  0.000000000000E+00
</data>
</radfunc>
</valence-charge>
<pseudocore-charge matching-radius="1.05368374940"
 number-of-continuous-derivatives="4">
<annotation model-charge-form="Teter function with specified parameters" />
<radfunc>
<data npts="290">
  2.242130571912E+01  2.242025452390E+01  2.241711204843E+01  2.241186898734E+01
  2.240417492790E+01  2.239435640123E+01  2.238184086236E+01  2.236750678981E+01
  2.235138620971E+01  2.233258243933E+01  2.231138138800E+01  2.228833009466E+01
  2.226046125401E+01  2.223134337911E+01  2.220224336326E+01  2.216870933664E+01
  2.213007354255E+01  2.209343068471E+01  2.205221354566E+01  2.200586079893E+01
  2.195374484470E+01  2.190743416539E+01  2.185659206095E+01  2.180078675885E+01
  2.173954778496E+01  2.167236301312E+01  2.159867560463E+01  2.153878081929E+01
  2.147461540085E+01  2.140588862860E+01  2.133229211048E+01  2.125349904282E+01
  2.116916349620E+01  2.107891974022E+01  2.098238162248E+01  2.087914201921E+01
  2.076877237826E+01  2.065082237827E+01  2.056774541170E+01  2.048094457220E+01
  2.039027015988E+01  2.029556818652E+01  2.019668043867E+01  2.009344456677E+01
  1.998569420302E+01  1.987325911134E+01  1.975596537270E+01  1.963363560936E+01
  1.950608925200E+01  1.937314285365E+01  1.923461045489E+01  1.909030400473E+01
  1.894003384203E+01  1.878360924233E+01  1.862083903537E+01  1.845153229849E+01
  1.827549913151E+01  1.809255151846E+01  1.790250428185E+01  1.770517613496E+01
  1.750039083756E+01  1.728797846038E+01  1.706777676308E+01  1.683963269032E+01
  1.660340398986E+01  1.635896095566E+01  1.610618829844E+01  1.597664676464E+01
  1.584498714453E+01  1.571119999282E+01  1.557527716298E+01  1.543721188063E+01
  1.529699881864E+01  1.515463417421E+01  1.501011574762E+01  1.486344302269E+01
  1.471461724883E+01  1.456364152465E+01  1.441052088287E+01  1.425526237660E+01
  1.409787516668E+01  1.393837061003E+01  1.377676234882E+01  1.361306640024E+01
  1.344730124671E+01  1.327948792625E+01  1.310965012288E+01  1.293781425659E+01
  1.276400957286E+01  1.258826823115E+01  1.241062539227E+01  1.223111930410E+01
  1.204979138543E+01  1.186668630738E+01  1.168185207216E+01  1.149534008849E+01
  1.130720524347E+01  1.111750597020E+01  1.092630431076E+01  1.073366597388E+01
  1.053966038692E+01  1.034436074141E+01  1.014784403157E+01  9.950191085281E+00
  9.751486586705E+00  9.551819090044E+00  9.351281023616E+00  9.149968683649E+00
  8.947982217048E+00  8.745425592425E+00  8.542406558691E+00  8.339036590470E+00
  8.135430819650E+00  7.931707952346E+00  7.727990170604E+00  7.524403018165E+00
  7.321075269652E+00  7.118138782576E+00  6.915728331579E+00  6.713981424409E+00
  6.513038099133E+00  6.313040702220E+00  6.114133647133E+00  5.916463153196E+00
  5.720176964573E+00  5.525424049310E+00  5.332354278483E+00  5.141118085638E+00
  4.951866106834E+00  4.764748801721E+00  4.579916056282E+00  4.397516767984E+00
  4.217698414276E+00  4.040606605562E+00  3.866384623943E+00  3.695172949230E+00
  3.527108773936E+00  3.362325509145E+00  3.200952283390E+00  3.043113436865E+00
  2.888928013499E+00  2.738509253669E+00  2.591964090480E+00  2.449392652768E+00
  2.310887778167E+00  2.176534539729E+00  2.046409789768E+00  1.920581724703E+00
  1.799109474810E+00  1.682042722856E+00  1.569421355634E+00  1.461275152450E+00
  1.357623514548E+00  1.258475239439E+00  1.163828343918E+00  1.073669939439E+00
  9.879761632634E-01  9.067121685225E-01  8.298321760002E-01  7.572795900475E-01
  6.889871805765E-01  6.248773325690E-01  5.648623639615E-01  5.088449121354E-01
  4.567183885620E-01  4.083675004220E-01  3.636688372510E-01  3.224915198615E-01
  2.846979079666E-01  2.501443620936E-01  2.186820545394E-01  1.901578232929E-01
  1.644150620567E-01  1.412946387418E-01  1.206358341219E-01  1.022772917132E-01
  8.605796942713E-02  7.181808313131E-02  5.940003197582E-02  4.864929520113E-02
  3.941529016784E-02  3.155218153794E-02  2.491963190855E-02  1.938348475542E-02
  1.481637128871E-02  1.109823375471E-02  8.116758829432E-03  5.767716030547E-03
  3.955197507675E-03  2.591757134417E-03  1.598448492445E-03  9.047630754249E-04
  4.484718117667E-04  1.753747691518E-04  3.896561615458E-05  1.903097084398E-08
  2.611071718623E-05  9.108096547985E-05  1.744537442707E-04  2.608240718657E-04
  3.392268838837E-04  4.025007365602E-04  4.466594623528E-04  4.702843133038E-04
  4.739481962155E-04  4.596823410501E-04  4.304941825013E-04  3.899434197777E-04
  3.417812087768E-04  2.896553021119E-04  2.368817623595E-04  1.862817145198E-04
  1.400795592885E-04  9.985722197613E-05  6.655743964667E-05  4.052785819998E-05
  2.159687457819E-05  9.171752289740E-06  2.349575678107E-06  3.208192886204E-08
  1.036288483901E-06  4.194063363745E-06  8.435292309563E-06  1.285098805588E-05
  1.673445986239E-05  1.960040634967E-05  2.118340372141E-05  2.141863547241E-05
  2.040876572075E-05  1.838153619421E-05  1.564293450010E-05  1.253063779290E-05
  9.371912729961E-06  6.449311499831E-06  3.976432398749E-06  2.084818286927E-06
  8.218630507912E-07  1.584994557351E-07  4.553700658506E-09  2.290521125344E-07
  6.825021301968E-07  1.218254742002E-06  1.710462214088E-06  2.066810846042E-06
  2.235042297630E-06  2.203169182505E-06  1.994126661842E-06  1.656276817741E-06
  1.251615131175E-06  8.436714161845E-07  4.869452934905E-07  2.193052705891E-07
  5.818450526326E-08  7.254578243386E-10  0.000000000000E+00  0.000000000000E+00
  0.000000000000E+00  0.000000000000E+00  0.000000000000E+00  0.000000000000E+00
  0.000000000000E+00  0.000000000000E+00  0.000000000000E+00  0.000000000000E+00
  0.000000000000E+00  0.000000000000E+00  0.000000000000E+00  0.000000000000E+00
  0.000000000000E+00  0.000000000000E+00  0.000000000000E+00  0.000000000000E+00
  0.000000000000E+00  0.000000000000E+00  0.000000000000E+00  0.000000000000E+00
  0.000000000000E+00  0.000000000000E+00  0.000000000000E+00  0.000000000000E+00
  0.000000000000E+00  0.000000000000E+00  0.000000000000E+00  0.000000000000E+00
  0.000000000000E+00  0.000000000000E+00  0.000000000000E+00  0.000000000000E+00
  0.000000000000E+00  0.000000000000E+00
</data>
</radfunc>
</pseudocore-charge>
<semilocal-potentials set="lj">
<slps n="4" l="s" j="0.5" rc="1.75983649523" eref="-0.846495857240">
<radfunc>
<data npts="290">
  4.838466699746E+01  4.835713430564E+01  4.827497303949E+01  4.813837646463E+01
  4.793901579403E+01  4.768647529550E+01  4.736756275101E+01  4.700637556766E+01
  4.660526459491E+01  4.614406495165E+01  4.563249071307E+01  4.508614485440E+01
  4.443895926662E+01  4.377787830691E+01  4.313211398530E+01  4.240578950702E+01
  4.159173555823E+01  4.084128571394E+01  4.002122308569E+01  3.912805979671E+01
  3.815878887906E+01  3.732695682371E+01  3.644403346721E+01  3.550955271881E+01
  3.452348747374E+01  3.348630099764E+01  3.239899293407E+01  3.155154410796E+01
  3.067766058298E+01  2.977842286784E+01  2.885510784397E+01  2.790918741558E+01
  2.694232415485E+01  2.595636381979E+01  2.495332470274E+01  2.393538385624E+01
  2.290486033749E+01  2.186419570768E+01  2.116603729027E+01  2.046527316793E+01
  1.976268837667E+01  1.905907636400E+01  1.835523548854E+01  1.765196548512E+01
  1.695006393062E+01  1.625032274597E+01  1.555352476897E+01  1.486044043175E+01
  1.417182457519E+01  1.348841343017E+01  1.281092179330E+01  1.214004042172E+01
  1.147643366819E+01  1.082073737416E+01  1.017355703509E+01  9.535466247830E+00
  8.907005446824E+00  8.288680931339E+00  7.680964182759E+00  7.084291467172E+00
  6.499063715258E+00  5.925646668425E+00  5.364371277366E+00  4.815534336774E+00
  4.279399337807E+00  3.756197518132E+00  3.246129087861E+00  2.996074311923E+00
  2.749364608571E+00  2.506016912962E+00  2.266046501713E+00  2.029467045402E+00
  1.796290662135E+00  1.566527971985E+00  1.340188152110E+00  1.117278992354E+00
  8.978069511486E-01  6.817772115158E-01  4.691937369892E-01  2.600593272693E-01
  5.437567342688E-02 -1.478565875247E-01 -3.466378188670E-01 -5.419693313945E-01
 -7.338533317870E-01 -9.222928723007E-01 -1.107291801940E+00 -1.288854719266E+00
 -1.466986926996E+00 -1.641694388538E+00 -1.812983686594E+00 -1.980861983983E+00
 -2.145336986781E+00 -2.306416909920E+00 -2.464110445344E+00 -2.618426732809E+00
 -2.769375333440E+00 -2.916966206087E+00 -3.061209686571E+00 -3.202116469845E+00
 -3.339697595118E+00 -3.473964433937E+00 -3.604928681233E+00 -3.732602349310E+00
 -3.856997764708E+00 -3.978127567867E+00 -4.096004715511E+00 -4.210642485599E+00
 -4.322054484667E+00 -4.430254657388E+00 -4.535257298098E+00 -4.637077064004E+00
 -4.735728989754E+00 -4.831228503017E+00 -4.923591440632E+00 -5.012834064876E+00
 -5.098973079326E+00 -5.182025643742E+00 -5.262009387326E+00 -5.338942419693E+00
 -5.412843338778E+00 -5.483731234906E+00 -5.551625690146E+00 -5.616546772056E+00
 -5.678515020868E+00 -5.737551429127E+00 -5.793677412775E+00 -5.846914772657E+00
 -5.897285645440E+00 -5.944812442948E+00 -5.989517778987E+00 -6.031424382802E+00
 -6.070554998429E+00 -6.106932269375E+00 -6.140578608244E+00 -6.171516051200E+00
 -6.199766097458E+00 -6.225349534387E+00 -6.248286249220E+00 -6.268595028898E+00
 -6.286293350165E+00 -6.301397162639E+00 -6.313920668362E+00 -6.323876102088E+00
 -6.331273517431E+00 -6.336120584923E+00 -6.338422408947E+00 -6.338181371555E+00
 -6.335397012141E+00 -6.330065952963E+00 -6.322181881491E+00 -6.311735601477E+00
 -6.298715165495E+00 -6.283106102427E+00 -6.264891753919E+00 -6.244053734197E+00
 -6.220572527680E+00 -6.194428238571E+00 -6.165601505889E+00 -6.134074596184E+00