<?xml version="1.0" encoding="UTF-8" ?>
<psml version="1.1" energy_unit="hartree" length_unit="bohr"
 uuid="2c2783a0-53a0-11e8-4b69-da7eb7e3263f"
 xmlns="http://esl.cecam.org/PSML/ns/1.1">
<provenance creator="ONCVPSP-3.3.0+psml-3.3.0-73 (fully-relativistic)"
 date="2018-05-09">
<annotation action="semilocal-pseudopotential-generation"
 action-cont="projectors-generation" />
<input-file name="oncvpsp-input">
<![CDATA[# atsym z nc nv iexc psfile
B 5 1 2 -116133 upf
# n l f
1 0 2.0
2 0 2.0
2 1 1.0
# lmax
1
# l rc ep ncon nbas qcut
0 1.2 0.0 4 8 7.6
1 1.2 0.0 4 8 8.8
# lloc lpopt rc5 dvloc0
4 5 1.2 0.0
# l nproj debl
0 2 8.5
1 2 1.5
# icmod fcfact
3 2.9 1.45
# epsh1 epsh2 depsh
-12.0 12.0 0.02
# rlmax drl
6.0 0.01
 0
]]>
</input-file>
</provenance>
<pseudo-atom-spec atomic-label="B" atomic-number="5" z-pseudo="3"
 flavor="Hamann&apos;s oncvpsp" relativity="dirac" spin-dft="no"
 core-corrections="yes">
<annotation pseudo-energy="-2.58433918330" />
<exchange-correlation>
<annotation oncvpsp-xc-code="-116133" oncvpsp-xc-type="libxc-interface" />
<libxc-info number-of-functionals="2">
<functional name="Perdew, Burke &amp; Ernzerhof SOL (GGA)" type="exchange"
 id="116" />
<functional name="Perdew, Burke &amp; Ernzerhof SOL (GGA)" type="correlation"
 id="133" />
</libxc-info>
</exchange-correlation>
<valence-configuration total-valence-charge="3">
<shell n="2" l="s" occupation="2" />
<shell n="2" l="p" occupation="1" />
</valence-configuration>
</pseudo-atom-spec>
<grid npts="457">
<annotation type="sampled from oncvpsp log grid"
 recipe="r(i:1..N) = r1*exp(a*(i-1)) + r=0; resampled"
 recipe-cont="r1: scale; a: step" scale="0.100000000000E-03"
 step="0.119285708653E-01" delta="0.500000000000E-02" rmax="44.3362164955" />
<grid-data>
  0.000000000000E+00  5.002741943459E-03  1.011249544414E-02  1.517035570920E-02
  2.019891604953E-02  2.533715228865E-02  3.066521414240E-02  3.580903885730E-02
  4.082989865078E-02  4.600271110220E-02  5.121628098796E-02  5.634457916426E-02
  6.198637503461E-02  6.738447158402E-02  7.325266251047E-02  7.868763446835E-02
  8.452585347789E-02  8.972059130699E-02  9.523458413327E-02  1.010874525337E-01
  1.073000229144E-01  1.125438751168E-01  1.180439992675E-01  1.238129196156E-01
  1.298637724820E-01  1.362103361718E-01  1.428670623488E-01  1.480722420386E-01
  1.534670658293E-01  1.590584431627E-01  1.648535352170E-01  1.708597640790E-01
  1.770848222496E-01  1.835366824963E-01  1.902236080644E-01  1.971541632598E-01
  2.043372244181E-01  2.117819912728E-01  2.168952556701E-01  2.221319747230E-01
  2.274951291207E-01  2.329877715182E-01  2.386130282737E-01  2.443741012284E-01
  2.502742695284E-01  2.563168914919E-01  2.625054065201E-01  2.688433370551E-01
  2.753342905850E-01  2.819819616969E-01  2.887901341801E-01  2.957626831797E-01
  3.029035774024E-01  3.102168813752E-01  3.177067577591E-01  3.253774697185E-01
  3.332333833474E-01  3.412789701549E-01  3.495188096103E-01  3.579575917496E-01
  3.666001198448E-01  3.754513131383E-01  3.845162096427E-01  3.937999690083E-01
  4.033078754601E-01  4.130453408052E-01  4.230179075136E-01  4.280941224037E-01
  4.332312518726E-01  4.384300268950E-01  4.436911872178E-01  4.490154814644E-01
  4.544036672420E-01  4.598565112489E-01  4.653747893839E-01  4.709592868565E-01
  4.766107982987E-01  4.823301278783E-01  4.881180894129E-01  4.939755064858E-01
  4.999032125636E-01  5.059020511144E-01  5.119728757278E-01  5.181165502365E-01
  5.243339488394E-01  5.306259562254E-01  5.369934677001E-01  5.434373893125E-01
  5.499586379843E-01  5.565581416401E-01  5.632368393398E-01  5.699956814119E-01
  5.768356295888E-01  5.837576571439E-01  5.907627490296E-01  5.978519020179E-01
  6.050261248422E-01  6.122864383403E-01  6.196338756004E-01  6.270694821076E-01
  6.345943158928E-01  6.422094476836E-01  6.499159610558E-01  6.577149525884E-01
  6.656075320195E-01  6.735948224037E-01  6.816779602726E-01  6.898580957958E-01
  6.981363929454E-01  7.065140296607E-01  7.149921980167E-01  7.235721043929E-01
  7.322549696456E-01  7.410420292813E-01  7.499345336327E-01  7.589337480363E-01
  7.680409530127E-01  7.772574444489E-01  7.865845337823E-01  7.960235481877E-01
  8.055758307659E-01  8.152427407351E-01  8.250256536239E-01  8.349259614674E-01
  8.449450730050E-01  8.550844138811E-01  8.653454268477E-01  8.757295719698E-01
  8.862383268335E-01  8.968731867555E-01  9.076356649965E-01  9.185272929765E-01
  9.295496204922E-01  9.407042159381E-01  9.519926665294E-01  9.634165785277E-01
  9.749775774701E-01  9.866773083997E-01  9.985174361005E-01  1.010499645334E+00
  1.022625641078E+00  1.034897148771E+00  1.047315914556E+00  1.059883705531E+00
  1.072602309997E+00  1.085473537717E+00  1.098499220169E+00  1.111681210812E+00
  1.125021385341E+00  1.138521641965E+00  1.152183901669E+00  1.166010108489E+00
  1.180002229791E+00  1.194162256548E+00  1.208492203627E+00  1.222994110070E+00
  1.237670039391E+00  1.252522079864E+00  1.267552344822E+00  1.282762972960E+00
  1.298156128636E+00  1.313734002179E+00  1.329498810206E+00  1.345452795928E+00
  1.361598229479E+00  1.377937408233E+00  1.394472657132E+00  1.411206329017E+00
  1.428140804965E+00  1.445278494625E+00  1.462621836561E+00  1.480173298599E+00
  1.497935378182E+00  1.515910602721E+00  1.534101529953E+00  1.552510748313E+00
  1.571140877292E+00  1.589994567820E+00  1.609074502634E+00  1.628383396665E+00
  1.647923997425E+00  1.667699085395E+00  1.687711474419E+00  1.707964012112E+00
  1.728459580258E+00  1.749201095221E+00  1.770191508363E+00  1.791433806464E+00
  1.812931012141E+00  1.834686184287E+00  1.856702418498E+00  1.878982847520E+00
  1.901530641691E+00  1.924349009391E+00  1.947441197504E+00  1.970810491874E+00
  1.994460217776E+00  2.018393740389E+00  2.042614465274E+00  2.067125838857E+00
  2.091931348924E+00  2.117034525111E+00  2.142438939412E+00  2.168148206685E+00
  2.194165985165E+00  2.220495976987E+00  2.247141928711E+00  2.274107631856E+00
  2.301396923438E+00  2.329013686519E+00  2.356961850757E+00  2.385245392967E+00
  2.413868337682E+00  2.442834757734E+00  2.472148774827E+00  2.501814560125E+00
  2.531836334847E+00  2.562218370865E+00  2.592964991315E+00  2.624080571211E+00
  2.655569538065E+00  2.687436372522E+00  2.719685608992E+00  2.752321836300E+00
  2.785349698336E+00  2.818773894716E+00  2.852599181453E+00  2.886830371630E+00
  2.921472336090E+00  2.956530004123E+00  2.992008364172E+00  3.027912464542E+00
  3.064247414117E+00  3.101018383086E+00  3.138230603683E+00  3.175889370927E+00
  3.214000043378E+00  3.252568043899E+00  3.291598860426E+00  3.331098046751E+00
  3.371071223312E+00  3.411524077992E+00  3.452462366928E+00  3.493891915331E+00
  3.535818618315E+00  3.578248441734E+00  3.621187423035E+00  3.664641672112E+00
  3.708617372177E+00  3.753120780643E+00  3.798158230011E+00  3.843736128771E+00
  3.889860962316E+00  3.936539293864E+00  3.983777765390E+00  4.031583098575E+00
  4.079962095758E+00  4.128921640907E+00  4.178468700598E+00  4.228610325005E+00
  4.279353648905E+00  4.330705892692E+00  4.382674363404E+00  4.435266455765E+00
  4.488489653234E+00  4.542351529073E+00  4.596859747422E+00  4.652022064391E+00
  4.707846329164E+00  4.764340485114E+00  4.821512570935E+00  4.879370721786E+00
  4.937923170448E+00  4.997178248493E+00  5.057144387475E+00  5.117830120125E+00
  5.179244081566E+00  5.241395010545E+00  5.304291750672E+00  5.367943251680E+00
  5.432358570700E+00  5.497546873548E+00  5.563517436031E+00  5.630279645263E+00
  5.697843001006E+00  5.766217117018E+00  5.835411722423E+00  5.905436663092E+00
  5.976301903049E+00  6.048017525885E+00  6.120593736196E+00  6.194040861030E+00
  6.268369351363E+00  6.343589783579E+00  6.419712860982E+00  6.496749415314E+00
  6.574710408298E+00  6.653606933197E+00  6.733450216396E+00  6.814251618992E+00
  6.896022638420E+00  6.978774910081E+00  7.062520209002E+00  7.147270451510E+00
  7.233037696928E+00  7.319834149291E+00  7.407672159083E+00  7.496564224992E+00
  7.586522995692E+00  7.677561271640E+00  7.769692006900E+00  7.862928310983E+00
  7.957283450714E+00  8.052770852123E+00  8.149404102349E+00  8.247196951577E+00
  8.346163314996E+00  8.446317274776E+00  8.547673082073E+00  8.650245159058E+00
  8.754048100966E+00  8.859096678178E+00  8.965405838316E+00  9.072990708376E+00
  9.181866596876E+00  9.292048996039E+00  9.403553583991E+00  9.516396226999E+00
  9.630592981723E+00  9.746160097504E+00  9.863114018674E+00  9.981471386898E+00
  1.010124904354E+01  1.022246403206E+01  1.034513360045E+01  1.046927520365E+01
  1.059490650610E+01  1.072204538417E+01  1.085070992878E+01  1.098091844793E+01
  1.111268946930E+01  1.124604174293E+01  1.138099424385E+01  1.151756617477E+01
  1.165577696887E+01  1.179564629250E+01  1.193719404801E+01  1.208044037658E+01
  1.222540566110E+01  1.237211052904E+01  1.252057585538E+01  1.267082276565E+01
  1.282287263884E+01  1.297674711050E+01  1.313246807583E+01  1.329005769274E+01
  1.344953838505E+01  1.361093284567E+01  1.377426403982E+01  1.393955520830E+01
  1.410682987080E+01  1.427611182925E+01  1.444742517120E+01  1.462079427325E+01
  1.479624380453E+01  1.497379873019E+01  1.515348431495E+01  1.533532612673E+01
  1.551935004025E+01  1.570558224073E+01  1.589404922762E+01  1.608477781835E+01
  1.627779515217E+01  1.647312869400E+01  1.667080623833E+01  1.687085591319E+01
  1.707330618414E+01  1.727818585835E+01  1.748552408865E+01  1.769535037772E+01
  1.790769458225E+01  1.812258691724E+01  1.834005796024E+01  1.856013865577E+01
  1.878286031964E+01  1.900825464347E+01  1.923635369919E+01  1.946718994358E+01
  1.970079622291E+01  1.993720577758E+01  2.017645224691E+01  2.041856967388E+01
  2.066359250996E+01  2.091155562008E+01  2.116249428752E+01  2.141644421897E+01
  2.167344154960E+01  2.193352284820E+01  2.219672512237E+01  2.246308582384E+01
  2.273264285373E+01  2.300543456797E+01  2.328149978279E+01  2.356087778018E+01
  2.384360831355E+01  2.412973161331E+01  2.441928839267E+01  2.471231985338E+01
  2.500886769162E+01  2.530897410392E+01  2.561268179317E+01  2.592003397469E+01
  2.623107438238E+01  2.654584727497E+01  2.686439744227E+01  2.718677021158E+01
  2.751301145412E+01  2.784316759156E+01  2.817728560266E+01  2.851541302990E+01
  2.885759798625E+01  2.920388916209E+01  2.955433583203E+01  2.990898786202E+01
  3.026789571636E+01  3.063111046496E+01  3.099868379054E+01  3.137066799603E+01
  3.174711601198E+01  3.212808140412E+01  3.251361838097E+01  3.290378180154E+01
  3.329862718316E+01  3.369821070936E+01  3.410258923787E+01  3.451182030873E+01
  3.492596215243E+01  3.534507369826E+01  3.576921458264E+01  3.619844515763E+01
  3.663282649952E+01  3.707242041752E+01  3.751728946253E+01  3.796749693608E+01
  3.842310689931E+01  3.888418418210E+01  3.935079439229E+01  3.982300392499E+01
  4.030087997209E+01  4.078449053176E+01  4.127390441814E+01  4.176919127116E+01
  4.227042156641E+01  4.277766662521E+01  4.329099862471E+01  4.381049060821E+01
  4.433621649551E+01
</grid-data>
</grid>
<valence-charge total-charge="3" is-unscreening-charge="yes"
 rescaled-to-z-pseudo="no">
<radfunc>
<data npts="457">
  1.610476552690E-01  1.611472602338E-01  1.614545695694E-01  1.619631378056E-01
  1.626699785415E-01  1.635989685751E-01  1.647822458027E-01  1.661362251546E-01
  1.676573855762E-01  1.694296341448E-01  1.714251102129E-01  1.735914663689E-01
  1.762060262477E-01  1.789324443721E-01  1.821430938912E-01  1.853434828082E-01
  1.890212385995E-01  1.924998517179E-01  1.964017321735E-01  2.007758832912E-01
  2.056763065861E-01  2.100152395291E-01  2.147617911383E-01  2.199512837755E-01
  2.256214735839E-01  2.318125801226E-01  2.385672801189E-01  2.440301952669E-01
  2.498553173219E-01  2.560632090772E-01  2.626750679974E-01  2.697126559794E-01
  2.771982106467E-01  2.851543358918E-01  2.936038693126E-01  3.025697241836E-01
  3.120747036642E-01  3.221412851120E-01  3.291751891857E-01  3.364747386286E-01
  3.440460165762E-01  3.518948537777E-01  3.600267819374E-01  3.684469841433E-01
  3.771602424974E-01  3.861708831177E-01  3.954827187387E-01  4.050989892040E-01
  4.150223002091E-01  4.252545607242E-01  4.357969195950E-01  4.466497018867E-01
  4.578123455967E-01  4.692833394119E-01  4.810601622223E-01  4.931392251161E-01
  5.055158165704E-01  5.181840515074E-01  5.311368247971E-01  5.443657696589E-01
  5.578612212295E-01  5.716121853219E-01  5.856063121011E-01  5.998298740485E-01
  6.142677471738E-01  6.289033939913E-01  6.437188463084E-01  6.511879884830E-01
  6.586946854171E-01  6.662362789998E-01  6.738100168682E-01  6.814130510989E-01
  6.890424366894E-01  6.966951298015E-01  7.043679857444E-01  7.120577566736E-01
  7.197610889875E-01  7.274745204058E-01  7.351944767166E-01  7.429172681889E-01
  7.506390856491E-01  7.583559962298E-01  7.660639388087E-01  7.737587191620E-01
  7.814360048705E-01  7.890913200264E-01  7.967200398013E-01  8.043173849504E-01
  8.118784163398E-01  8.193980295993E-01  8.268709500163E-01  8.342917278012E-01
  8.416547338663E-01  8.489541562732E-01  8.561839975146E-01  8.633380728026E-01
  8.704100095422E-01  8.773932481717E-01  8.842810445462E-01  8.910664740374E-01
  8.977424375070E-01  9.043016692956E-01  9.107367473410E-01  9.170401055114E-01
  9.232040481944E-01  9.292207671413E-01  9.350823605063E-01  9.407808539623E-01
  9.463082237026E-01  9.516564210658E-01  9.568173984419E-01  9.617831360323E-01
  9.665456689579E-01  9.710971141260E-01  9.754296961893E-01  9.795357718647E-01
  9.834078518209E-01  9.870386193045E-01  9.904209446547E-01  9.935478948604E-01
  9.964127373495E-01  9.990089372663E-01  1.001330147600E+00  1.003370191673E+00
  1.005123037688E+00  1.006582765267E+00  1.007743524190E+00  1.008599485890E+00
  1.009144788566E+00  1.009373477253E+00  1.009279440535E+00  1.008856346085E+00
  1.008097577610E+00  1.006996176254E+00  1.005544789866E+00  1.003735633901E+00
  1.001560467985E+00  9.990105923250E-01  9.960768681696E-01  9.927497663993E-01
  9.890194480005E-01  9.848758796496E-01  9.803089868788E-01  9.753088462978E-01
  9.698659171076E-01  9.639713106716E-01  9.576170952324E-01  9.507966310173E-01
  9.435049290255E-01  9.357390248160E-01  9.274983567093E-01  9.187851361026E-01
  9.096046961936E-01  8.999658044544E-01  8.898809238165E-01  8.793661540082E-01
  8.684400277650E-01  8.571216172438E-01  8.454301544986E-01  8.333853372895E-01
  8.210071219089E-01  8.083157050438E-01  7.953314754231E-01  7.820749683015E-01
  7.685668200664E-01  7.548277230581E-01  7.408783807392E-01  7.267394633495E-01
  7.124315641811E-01  6.979751566130E-01  6.833905520417E-01  6.686978588395E-01
  6.539169424728E-01  6.390673869020E-01  6.241684573815E-01  6.092390647708E-01
  5.942977314564E-01  5.793625589811E-01  5.644511974625E-01  5.495808168772E-01
  5.347680802746E-01  5.200291189777E-01  5.053795098142E-01  4.908342544159E-01
  4.764077606107E-01  4.621138259244E-01  4.479656231991E-01  4.339756883267E-01
  4.201559100850E-01  4.065175220585E-01  3.930710966147E-01  3.798265409016E-01
  3.667930948227E-01  3.539793309398E-01  3.413931562479E-01  3.290418157587E-01
  3.169318978269E-01  3.050693411441E-01  2.934594433260E-01  2.821068710087E-01
  2.710156713721E-01  2.601892850017E-01  2.496305599983E-01  2.393417672453E-01
  2.293246167390E-01  2.195802748884E-01  2.101093826900E-01  2.009120746816E-01
  1.919879985831E-01  1.833363355295E-01  1.749558208034E-01  1.668447649791E-01
  1.590010753870E-01  1.514222778148E-01  1.441055383606E-01  1.370476853585E-01
  1.302452312983E-01  1.236943946730E-01  1.173911216698E-01  1.113311076549E-01
  1.055098183812E-01  9.992251086613E-02  9.456425388490E-02  8.942994803202E-02
  8.451434530787E-02  7.981206819105E-02  7.531762816226E-02  7.102544364978E-02
  6.692985736920E-02  6.302515304432E-02  5.930557147433E-02  5.576532594999E-02
  5.239861699975E-02  4.919964645905E-02  4.616263085766E-02  4.328181412155E-02
  4.055147958804E-02  3.796596133422E-02  3.551965482007E-02  3.320702684849E-02
  3.102262484547E-02  2.896108546401E-02  2.701714251632E-02  2.518563423905E-02
  2.346150989742E-02  2.183983573438E-02  2.031580027239E-02  1.888471897615E-02
  1.754203828614E-02  1.628333903441E-02  1.510433925557E-02  1.400089640816E-02
  1.296900902326E-02  1.200481779953E-02  1.110460616573E-02  1.026480033414E-02
  9.481968869942E-03  8.752821803520E-03  8.074209314422E-03  7.443120016785E-03
  6.856678877289E-03  6.312144797540E-03  5.806907893143E-03  5.338486501925E-03
  4.904523953711E-03  4.502785133602E-03  4.131152869955E-03  3.787624177388E-03
  3.470306383918E-03  3.177413169997E-03  2.907260545695E-03  2.658262790603E-03
  2.428928379329E-03  2.217855913601E-03  2.023730080186E-03  1.845317651959E-03
  1.681463547625E-03  1.531086963774E-03  1.393177591230E-03  1.266791925938E-03
  1.151049683053E-03  1.045130321367E-03  9.482696838152E-04  8.597567584723E-04
  7.789305632490E-04  7.051771564052E-04  6.379267739911E-04  5.766510944418E-04
  5.208606297552E-04  4.701022419903E-04  4.239567832158E-04  3.820368565222E-04
  3.439846952692E-04  3.094701573789E-04  2.781888311862E-04  2.498602491245E-04
  2.242262053470E-04  2.010491732545E-04  1.801108188186E-04  1.612106055448E-04
  1.441644869101E-04  1.288036821318E-04  1.149735311675E-04  1.025324249166E-04
  9.135080667786E-05  8.131024101730E-05  7.230254631484E-05  6.422898737815E-05
  5.699952464181E-05  5.053211660292E-05  4.475207228206E-05  3.959145063678E-05
  3.498850399455E-05  3.088716271087E-05  2.723655839540E-05  2.399058318426E-05
  2.110748266883E-05  1.854948021987E-05  1.628243057126E-05  1.427550064795E-05
  1.250087573974E-05  1.093348923398E-05  9.550774228051E-06  8.332435444915E-06
  7.260239972909E-06  6.317825444496E-06  5.490524357122E-06  4.765203323550E-06
  4.130116118737E-06  3.574769465666E-06  3.089800573788E-06  2.666865510844E-06
  2.298537552176E-06  1.978214711134E-06  1.700035710229E-06  1.458803705242E-06
  1.249917123873E-06  1.069307026758E-06  9.133804420940E-07  7.789691656193E-07
  6.632835557614E-07  5.638708891928E-07  4.785778752552E-07  4.055169586683E-07
  3.430360688502E-07  2.896915011333E-07  2.442236402854E-07  2.055352601422E-07
  1.726721549398E-07  1.448058781891E-07  1.212183837560E-07  1.012883812925E-07
  8.447923437544E-08  7.032824473624E-08  5.843717988246E-08  4.846391427456E-08
  4.011506611116E-08  3.313952274115E-08  2.732275782552E-08  2.248185266891E-08
  1.846114268182E-08  1.512841776987E-08  1.237161262129E-08  1.009592942459E-08
  8.221341534725E-09  6.680432060279E-09  5.416526302884E-09  4.382081479715E-09
  3.537301234842E-09  2.848946127638E-09  2.289314607062E-09  1.835371968476E-09
  1.468007471971E-09  1.171402203621E-09  9.324924079780E-10  7.405149338330E-10
  5.866231372014E-10  4.635630951615E-10  3.654013200539E-10  2.872963425656E-10
  2.253075701345E-10  1.762357383950E-10  1.374900713791E-10  1.069779630853E-10
  8.301359999094E-11  6.424247125451E-11  4.957916995903E-11  3.815628310650E-11
  2.928250771490E-11  2.240842203674E-11  1.709859066469E-11  1.300889551128E-11
  9.868166149235E-12  7.463337032991E-12  5.627489451415E-12  4.230245997878E-12
  3.170077791500E-12  2.368162182349E-12  1.763493436388E-12  1.309002843928E-12
  9.684894899866E-13  7.141999986488E-13  5.249261465116E-13  3.845143854185E-13
  2.807019196590E-13  2.042108103178E-13  1.480452750841E-13  1.069484599863E-13
  7.698376613161E-14  5.521431561901E-14  3.945589614217E-14  2.809056305252E-14
  1.992404964726E-14  1.407807907564E-14  9.909172228315E-15  6.947661492254E-15
  4.852055357774E-15  3.375020738848E-15  2.338125198300E-15  1.613149824965E-15
  0.000000000000E+00  0.000000000000E+00  0.000000000000E+00  0.000000000000E+00
  0.000000000000E+00  0.000000000000E+00  0.000000000000E+00  0.000000000000E+00
  0.000000000000E+00  0.000000000000E+00  0.000000000000E+00  0.000000000000E+00
  0.000000000000E+00  0.000000000000E+00  0.000000000000E+00  0.000000000000E+00
  0.000000000000E+00  0.000000000000E+00  0.000000000000E+00  0.000000000000E+00
  0.000000000000E+00  0.000000000000E+00  0.000000000000E+00  0.000000000000E+00
  0.000000000000E+00  0.000000000000E+00  0.000000000000E+00  0.000000000000E+00
  0.000000000000E+00  0.000000000000E+00  0.000000000000E+00  0.000000000000E+00
  0.000000000000E+00  0.000000000000E+00  0.000000000000E+00  0.000000000000E+00
  0.000000000000E+00
</data>
</radfunc>
</valence-charge>
<pseudocore-charge matching-radius="0.732254969646"
 number-of-continuous-derivatives="4">
<annotation model-charge-form="Teter function with specified parameters" />
<radfunc>
<data npts="290">
  2.901208753726E+00  2.901005267582E+00  2.900377389556E+00  2.899338100526E+00
  2.897893196465E+00  2.895993412961E+00  2.893572346370E+00  2.890800266370E+00
  2.887683677872E+00  2.884049668120E+00  2.879954065600E+00  2.875503086431E+00
  2.870124742089E+00  2.864508691512E+00  2.857885165363E+00  2.851271936693E+00
  2.843658775069E+00  2.836444443984E+00  2.828336649257E+00  2.819227662829E+00
  2.808997553148E+00  2.799917156777E+00  2.789959289079E+00  2.779042644942E+00
  2.767079117417E+00  2.753973385427E+00  2.739622512575E+00  2.727975812843E+00
  2.715516630882E+00  2.702192392724E+00  2.687947753699E+00  2.672724553684E+00
  2.656461790774E+00  2.639095617401E+00  2.620559363492E+00  2.600783591875E+00
  2.579696191770E+00  2.557222516939E+00  2.541431983288E+00  2.524967810379E+00
  2.507806281388E+00  2.489923351465E+00  2.471294701766E+00  2.451895801266E+00
  2.431701977016E+00  2.410688493496E+00  2.388830641755E+00  2.366103839040E+00
  2.342483739631E+00  2.317946357612E+00  2.292468202272E+00  2.266026426865E+00
  2.238598991380E+00  2.210164839992E+00  2.180704093741E+00  2.150198258976E+00
  2.118630451966E+00  2.085985639976E+00  2.052250898954E+00  2.017415687804E+00
  1.981472138995E+00  1.944415365042E+00  1.906243780046E+00  1.866959435224E+00
  1.826568366903E+00  1.785080955094E+00  1.742512290224E+00  1.720828583142E+00
  1.698882545111E+00  1.676677553179E+00  1.654217348660E+00  1.631506048608E+00
  1.608548157135E+00  1.585348576535E+00  1.561912618161E+00  1.538246013000E+00
  1.514354921903E+00  1.490245945406E+00  1.465926133077E+00  1.441402992338E+00
  1.416684496683E+00  1.391779093228E+00  1.366695709524E+00  1.341443759549E+00
  1.316033148804E+00  1.290474278435E+00  1.264778048294E+00  1.238955858849E+00
  1.213019611869E+00  1.186981709774E+00  1.160855053578E+00  1.134653039320E+00
  1.108389552897E+00  1.082078963203E+00  1.055736113484E+00  1.029376310817E+00
  1.003015313624E+00  9.766693171330E-01  9.503549367050E-01  9.240891889438E-01
  8.978894705189E-01  8.717735346293E-01  8.457594650487E-01  8.198656476990E-01
  7.941107397068E-01  7.685136359109E-01  7.430934327985E-01  7.178693898605E-01
  6.928608883725E-01  6.680873876212E-01  6.435683786155E-01  6.193233353366E-01
  5.953716636045E-01  5.717326476558E-01  5.484253945531E-01  5.254687765650E-01
  5.028813716860E-01  4.806814024843E-01  4.588866734972E-01  4.375145074164E-01
  4.165816803346E-01  3.961043563524E-01  3.760980218702E-01  3.565774199184E-01
  3.375564849048E-01  3.190482781835E-01  3.010649248742E-01  2.836175523830E-01
  2.667162310940E-01  2.503699177232E-01  2.345864018346E-01  2.193722560340E-01
  2.047327903603E-01  1.906720113962E-01  1.771925866189E-01  1.642958144999E-01
  1.519816008511E-01  1.402484418915E-01  1.290934144809E-01  1.185121739323E-01
  1.084989597707E-01  9.904660975771E-02  9.014658243959E-02  8.178898841436E-02
  7.396263043727E-02  6.665505240442E-02  5.985259716684E-02  5.354047303334E-02
  4.770282872191E-02  4.232283641594E-02  3.738278247520E-02  3.286416524340E-02
  2.874779928552E-02  2.501392528137E-02  2.164232469799E-02  1.861243826549E-02
  1.590348719015E-02  1.349459595761E-02  1.136491550997E-02  9.493745525964E-03
  7.860654494679E-03  6.445596253525E-03  5.229021661321E-03  4.191984099434E-03
  3.316237539195E-03  2.584325983018E-03  1.979663180165E-03  1.486601635946E-03
  1.090490074306E-03  7.777186771111E-04  5.357516067221E-04  3.531465189784E-04
  2.195609880727E-04  1.257459887709E-04  6.352681039142E-05  2.577200559421E-05
  6.351199677783E-06  8.279679125273E-08  2.672812146424E-06  1.064622796529E-05
  2.127240979414E-05  3.248622374458E-05  4.280655971217E-05  5.125398717857E-05
  5.726924651823E-05  6.063420888961E-05  6.139682242608E-05  5.980140384067E-05
  5.622543671966E-05  5.112380638279E-05  4.498114350082E-05  3.827267334716E-05
  3.143368440906E-05  2.483744965381E-05  1.878116693286E-05  1.347924255607E-05
  9.063034041327E-06  5.586003275968E-06  3.033116895387E-06  1.333271437446E-06
  3.735189910339E-07  1.392394827023E-08  1.019894015726E-07  4.857460481162E-07
  1.024787813761E-06  1.598755159775E-06  2.112995927887E-06  2.501360507823E-06
  2.726299035374E-06  2.776610237624E-06  2.663333412388E-06  2.414368695408E-06
  2.068451625017E-06  1.669095472154E-06  1.259052449622E-06  8.757403165710E-07
  5.479450516998E-07  2.939567221515E-07  1.211393325275E-07  2.679121097526E-08
  3.385800905412E-11  2.438484126141E-08  8.063103784379E-08  1.496243925750E-07
  2.146704952759E-07  2.632631062215E-07  2.880238296258E-07  2.868214639098E-07
  2.621553120174E-07  2.199771061015E-07  1.681862089003E-07  1.150557415213E-07
  6.783186674664E-08  3.169874206409E-08  9.226694795982E-09  3.336132191048E-10
  0.000000000000E+00  0.000000000000E+00  0.000000000000E+00  0.000000000000E+00
  0.000000000000E+00  0.000000000000E+00  0.000000000000E+00  0.000000000000E+00
  0.000000000000E+00  0.000000000000E+00  0.000000000000E+00  0.000000000000E+00
  0.000000000000E+00  0.000000000000E+00  0.000000000000E+00  0.000000000000E+00
  0.000000000000E+00  0.000000000000E+00  0.000000000000E+00  0.000000000000E+00
  0.000000000000E+00  0.000000000000E+00  0.000000000000E+00  0.000000000000E+00
  0.000000000000E+00  0.000000000000E+00  0.000000000000E+00  0.000000000000E+00
  0.000000000000E+00  0.000000000000E+00  0.000000000000E+00  0.000000000000E+00
  0.000000000000E+00  0.000000000000E+00  0.000000000000E+00  0.000000000000E+00
  0.000000000000E+00  0.000000000000E+00  0.000000000000E+00  0.000000000000E+00
  0.000000000000E+00  0.000000000000E+00  0.000000000000E+00  0.000000000000E+00
  0.000000000000E+00  0.000000000000E+00  0.000000000000E+00  0.000000000000E+00
  0.000000000000E+00  0.000000000000E+00  0.000000000000E+00  0.000000000000E+00
  0.000000000000E+00  0.000000000000E+00
</data>
</radfunc>
</pseudocore-charge>
<semilocal-potentials set="lj">
<slps n="2" l="s" j="0.5" rc="1.20849220363" eref="-0.344013181059">
<radfunc>
<data npts="290">
  8.027292269856E+00  8.025204729547E+00  8.018767297443E+00  8.008124582199E+00
  7.993354635110E+00  7.973981512398E+00  7.949369107507E+00  7.921293176526E+00
  7.889861023221E+00  7.853387199744E+00  7.812507049221E+00  7.768349977414E+00
  7.715365156570E+00  7.660469463127E+00  7.596285620634E+00  7.532799031304E+00
  7.460443046034E+00  7.392589102033E+00  7.317146596541E+00  7.233401544474E+00
  7.140606557650E+00  7.059335556100E+00  6.971374175879E+00  6.876316346761E+00
  6.773758864211E+00  6.663307479348E+00  6.544583955068E+00  6.449898484357E+00
  6.350222276445E+00  6.245430244788E+00  6.135412311595E+00  6.020075825429E+00
  5.899347983447E+00  5.773178192259E+00  5.641540287528E+00  5.504434518263E+00
  5.361889187964E+00  5.213961832225E+00  5.112395489336E+00  5.008508583758E+00
  4.902340119139E+00  4.793934669313E+00  4.683342092115E+00  4.570617145809E+00
  4.455819003022E+00  4.339010658705E+00  4.220258230738E+00  4.099630154336E+00
  3.977196274545E+00  3.853026844789E+00  3.727191443705E+00  3.599757827344E+00
  3.470790739300E+00  3.340350707227E+00  3.208492860682E+00  3.075265811888E+00
  2.940710647935E+00  2.804860089675E+00  2.667737878979E+00  2.529358461620E+00
  2.389727037475E+00  2.248840052410E+00  2.106686206550E+00  1.963248050981E+00
  1.818504238567E+00  1.672432483766E+00  1.525013270377E+00  1.450794110264E+00
  1.376234324374E+00  1.301334367769E+00  1.226095840883E+00  1.150521690492E+00
  1.074616419581E+00  9.983863049671E-01  9.218396213083E-01  8.449868699420E-01
  7.678410107254E-01  6.904176948524E-01  6.127354963669E-01  5.348161398579E-01
  4.566847215840E-01  3.783699210460E-01  2.999041998090E-01  2.213239841575E-01
  1.426698279755E-01  6.398655210937E-02 -1.467664372018E-02 -9.326610046761E-02
 -1.717236548065E-01 -2.499866338081E-01 -3.279878932891E-01 -4.056559037746E-01
 -4.829148878980E-01 -5.596850127836E-01 -6.358826406685E-01 -7.114206406114E-01
 -7.862087636390E-01 -8.601540831043E-01 -9.331615013273E-01 -1.005134322791E+00
 -1.075974893268E+00 -1.145585303225E+00 -1.213868152730E+00 -1.280727373848E+00
 -1.346069105169E+00 -1.409802611693E+00 -1.471841241732E+00 -1.532103410949E+00
 -1.590513601953E+00 -1.647003366214E+00 -1.701512313349E+00 -1.753989071184E+00
 -1.804392198368E+00 -1.852691029810E+00 -1.898866433869E+00 -1.942911459042E+00
 -1.984831847007E+00 -2.024646388274E+00 -2.062387096488E+00 -2.098099177642E+00
 -2.131840771188E+00 -2.163682441342E+00 -2.193706398814E+00 -2.222005435861E+00
 -2.248681561022E+00 -2.273844324217E+00 -2.297608828193E+00 -2.320093428655E+00
 -2.341417132917E+00 -2.361696715660E+00 -2.381043580411E+00 -2.399560406693E+00
 -2.417337635383E+00 -2.434449858420E+00 -2.450952193353E+00 -2.466876737677E+00
 -2.482229211909E+00 -2.496985912774E+00 -2.511091107846E+00 -2.524455009241E+00
 -2.536952465339E+00 -2.548422505120E+00 -2.558668858521E+00 -2.567461557917E+00
 -2.574539699978E+00 -2.579615414132E+00 -2.582379043879E+00 -2.582505501404E+00
 -2.579661705249E+00 -2.573514957138E+00 -2.563742059203E+00 -2.550038888641E+00
 -2.532130517380E+00 -2.509781289998E+00 -2.482796781927E+00 -2.453597985573E+00
 -2.424741227513E+00 -2.396195508631E+00 -2.367960131483E+00 -2.340030038708E+00
 -2.312399738816E+00 -2.285065937805E+00 -2.258025510463E+00 -2.231276066714E+00