<?xml version="1.0" encoding="UTF-8" ?>
<psml version="1.1" energy_unit="hartree" length_unit="bohr"
 uuid="82d67b80-539f-11e8-7cd1-7397fbfdb3de"
 xmlns="http://esl.cecam.org/PSML/ns/1.1">
<provenance creator="ONCVPSP-3.3.0+psml-3.3.0-73 (fully-relativistic)"
 date="2018-05-09">
<annotation action="semilocal-pseudopotential-generation"
 action-cont="projectors-generation" />
<input-file name="oncvpsp-input">
<![CDATA[# atsym z nc nv iexc psfile
Cs 55 9 3 -116133 upf
# n l f
1 0 2.0
2 0 2.0
2 1 6.0
3 0 2.0
3 1 6.0
3 2 10.0
4 0 2.0
4 1 6.0
4 2 10.0
5 0 2.0
5 1 6.0
6 0 1.0
# lmax
3
# l rc ep ncon nbas qcut
0 2.25 0.0 4 7 4.8
1 1.85 0.0 4 7 6.0
2 2.0 0.0 4 8 6.2
3 1.9 0.05 4 7 8.8
# lloc lpopt rc5 dvloc0
4 5 1.85 0.0
# l nproj debl
0 2 1.0
1 2 5.0
2 2 5.0
3 2 2.0
# icmod fcfact rcfact
3 5.0 1.4
# epsh1 epsh2 depsh
-12.0 12.0 0.02
# rlmax drl
6.0 0.01
 0
]]>
</input-file>
</provenance>
<pseudo-atom-spec atomic-label="Cs" atomic-number="55" z-pseudo="9"
 flavor="Hamann&apos;s oncvpsp" relativity="dirac" spin-dft="no"
 core-corrections="yes">
<annotation pseudo-energy="-20.4373115095" />
<exchange-correlation>
<annotation oncvpsp-xc-code="-116133" oncvpsp-xc-type="libxc-interface" />
<libxc-info number-of-functionals="2">
<functional name="Perdew, Burke &amp; Ernzerhof SOL (GGA)" type="exchange"
 id="116" />
<functional name="Perdew, Burke &amp; Ernzerhof SOL (GGA)" type="correlation"
 id="133" />
</libxc-info>
</exchange-correlation>
<valence-configuration total-valence-charge="9">
<shell n="5" l="s" occupation="2" />
<shell n="5" l="p" occupation="6" />
<shell n="6" l="s" occupation="1" />
</valence-configuration>
</pseudo-atom-spec>
<grid npts="457">
<annotation type="sampled from oncvpsp log grid"
 recipe="r(i:1..N) = r1*exp(a*(i-1)) + r=0; resampled"
 recipe-cont="r1: scale; a: step" scale="0.909090909091E-05"
 step="0.119285708653E-01" delta="0.500000000000E-02" rmax="44.3250217340" />
<grid-data>
  0.000000000000E+00  5.001478766148E-03  1.010994206942E-02  1.516652523997E-02
  2.019381588391E-02  2.533075473382E-02  3.065747126796E-02  3.579999718257E-02
  4.081958922404E-02  4.599109555586E-02  5.120334903089E-02  5.633035232730E-02
  6.197072366114E-02  6.736745720739E-02  7.323416643326E-02  7.866776607706E-02
  8.450451095384E-02  8.969793712724E-02  9.521053768690E-02  1.010619282556E-01
  1.072729299810E-01  1.125154581265E-01  1.180141935123E-01  1.237816572254E-01
  1.298309822696E-01  1.361759434711E-01  1.428309888448E-01  1.480348542423E-01
  1.534283158563E-01  1.590182813837E-01  1.648119101947E-01  1.708166225019E-01
  1.770401088640E-01  1.834903400354E-01  1.901755771749E-01  1.971043824259E-01
  2.042856298828E-01  2.117285169563E-01  2.168404902697E-01  2.220758870668E-01
  2.274376872841E-01  2.329289428059E-01  2.385527792010E-01  2.443123975020E-01
  2.502110760273E-01  2.562521722469E-01  2.624391246936E-01  2.687754549202E-01
  2.752647695038E-01  2.819107620987E-01  2.887172155388E-01  2.956880039908E-01
  3.028270951592E-01  3.101385525447E-01  3.176265377573E-01  3.252953128849E-01
  3.331492429192E-01  3.411927982403E-01  3.494305571610E-01  3.578672085331E-01
  3.665075544159E-01  3.753565128097E-01  3.844191204550E-01  3.937005356993E-01
  4.032060414332E-01  4.129410480976E-01  4.229110967628E-01  4.279860299240E-01
  4.331218622831E-01  4.383193246305E-01  4.435791565260E-01  4.489021064043E-01
  4.542889316812E-01  4.597403988614E-01  4.652572836477E-01  4.708403710515E-01
  4.764904555041E-01  4.822083409701E-01  4.879948410618E-01  4.938507791545E-01
  4.997769885044E-01  5.057743123664E-01  5.118436041148E-01  5.179857273642E-01
  5.242015560926E-01  5.304919747657E-01  5.368578784629E-01  5.433001730044E-01
  5.498197750805E-01  5.564176123815E-01  5.630946237300E-01  5.698517592148E-01
  5.766899803254E-01  5.836102600893E-01  5.906135832103E-01  5.977009462089E-01
  6.048733575634E-01  6.121318378541E-01  6.194774199084E-01  6.269111489473E-01
  6.344340827347E-01  6.420472917275E-01  6.497518592282E-01  6.575488815389E-01
  6.654394681174E-01  6.734247417348E-01  6.815058386356E-01  6.896839086993E-01
  6.979601156037E-01  7.063356369909E-01  7.148116646348E-01  7.233894046104E-01
  7.320700774657E-01  7.408549183953E-01  7.497451774161E-01  7.587421195451E-01
  7.678470249796E-01  7.770611892794E-01  7.863859235507E-01  7.958225546333E-01
  8.053724252889E-01  8.150368943924E-01  8.248173371251E-01  8.347151451706E-01
  8.447317269126E-01  8.548685076356E-01  8.651269297272E-01  8.755084528839E-01
  8.860145543186E-01  8.966467289704E-01  9.074064897180E-01  9.182953675946E-01
  9.293149120058E-01  9.404666909498E-01  9.517522912412E-01  9.631733187361E-01
  9.747313985610E-01  9.864281753437E-01  9.982653134478E-01  1.010244497209E+00
  1.022367431176E+00  1.034635840350E+00  1.047051470434E+00  1.059616088079E+00
  1.072331481136E+00  1.085199458910E+00  1.098221852417E+00  1.111400514646E+00
  1.124737320821E+00  1.138234168671E+00  1.151892978695E+00  1.165715694440E+00
  1.179704282773E+00  1.193860734166E+00  1.208187062976E+00  1.222685307732E+00
  1.237357531425E+00  1.252205821802E+00  1.267232291663E+00  1.282439079163E+00
  1.297828348113E+00  1.313402288291E+00  1.329163115750E+00  1.345113073139E+00
  1.361254430017E+00  1.377589483177E+00  1.394120556975E+00  1.410850003659E+00
  1.427780203703E+00  1.444913566147E+00  1.462252528941E+00  1.479799559288E+00
  1.497557154000E+00  1.515527839848E+00  1.533714173926E+00  1.552118744013E+00
  1.570744168941E+00  1.589593098969E+00  1.608668216156E+00  1.627972234750E+00
  1.647507901567E+00  1.667277996386E+00  1.687285332343E+00  1.707532756331E+00
  1.728023149407E+00  1.748759427199E+00  1.769744540326E+00  1.790981474810E+00
  1.812473252507E+00  1.834222931538E+00  1.856233606716E+00  1.878508409997E+00
  1.901050510917E+00  1.923863117048E+00  1.946949474452E+00  1.970312868146E+00
  1.993956622563E+00  2.017884102034E+00  2.042098711258E+00  2.066603895794E+00
  2.091403142543E+00  2.116499980254E+00  2.141897980017E+00  2.167600755777E+00
  2.193611964846E+00  2.219935308424E+00  2.246574532125E+00  2.273533426511E+00
  2.300815827629E+00  2.328425617561E+00  2.356366724971E+00  2.384643125671E+00
  2.413258843179E+00  2.442217949297E+00  2.471524564689E+00  2.501182859465E+00
  2.531197053779E+00  2.561571418424E+00  2.592310275445E+00  2.623417998750E+00
  2.654899014735E+00  2.686757802912E+00  2.718998896547E+00  2.751626883306E+00
  2.784646405905E+00  2.818062162776E+00  2.851878908730E+00  2.886101455634E+00
  2.920734673102E+00  2.955783489179E+00  2.991252891049E+00  3.027147925742E+00
  3.063473700851E+00  3.100235385261E+00  3.137438209884E+00  3.175087468403E+00
  3.213188518024E+00  3.251746780240E+00  3.290767741603E+00  3.330256954502E+00
  3.370220037956E+00  3.410662678412E+00  3.451590630552E+00  3.493009718119E+00
  3.534925834737E+00  3.577344944753E+00  3.620273084090E+00  3.663716361099E+00
  3.707680957433E+00  3.752173128922E+00  3.797199206469E+00  3.842765596947E+00
  3.888878784110E+00  3.935545329519E+00  3.982771873473E+00  4.030565135955E+00
  4.078931917587E+00  4.127879100598E+00  4.177413649805E+00  4.227542613602E+00
  4.278273124966E+00  4.329612402465E+00  4.381567751295E+00  4.434146564310E+00
  4.487356323082E+00  4.541204598959E+00  4.595699054147E+00  4.650847442796E+00
  4.706657612110E+00  4.763137503455E+00  4.820295153497E+00  4.878138695339E+00
  4.936676359683E+00  4.995916475999E+00  5.055867473711E+00  5.116537883395E+00
  5.177936337996E+00  5.240071574052E+00  5.302952432941E+00  5.366587862136E+00
  5.430986916482E+00  5.496158759479E+00  5.562112664593E+00  5.628858016568E+00
  5.696404312767E+00  5.764761164520E+00  5.833938298495E+00  5.903945558077E+00
  5.974792904773E+00  6.046490419631E+00  6.119048304666E+00  6.192476884322E+00
  6.266786606934E+00  6.341988046217E+00  6.418091902772E+00  6.495109005605E+00
  6.573050313673E+00  6.651926917437E+00  6.731750040446E+00  6.812531040931E+00
  6.894281413422E+00  6.977012790383E+00  7.060736943868E+00  7.145465787194E+00
  7.231211376641E+00  7.317985913161E+00  7.405801744118E+00  7.494671365048E+00
  7.584607421428E+00  7.675622710486E+00  7.767730183011E+00  7.860942945208E+00
  7.955274260550E+00  8.050737551677E+00  8.147346402297E+00  8.245114559124E+00
  8.344055933834E+00  8.444184605040E+00  8.545514820300E+00  8.648060998144E+00
  8.751837730122E+00  8.856859782883E+00  8.963142100278E+00  9.070699805481E+00
  9.179548203147E+00  9.289702781585E+00  9.401179214964E+00  9.513993365543E+00
  9.628161285930E+00  9.743699221361E+00  9.860623612017E+00  9.978951095361E+00
  1.009869850851E+01  1.021988289061E+01  1.034252148530E+01  1.046663174312E+01
  1.059223132404E+01  1.071933809992E+01  1.084797015712E+01  1.097814579901E+01
  1.110988354860E+01  1.124320215118E+01  1.137812057699E+01  1.151465802392E+01
  1.165283392021E+01  1.179266792725E+01  1.193417994237E+01  1.207739010168E+01
  1.222231878290E+01  1.236898660830E+01  1.251741444760E+01  1.266762342097E+01
  1.281963490202E+01  1.297347052084E+01  1.312915216710E+01  1.328670199310E+01
  1.344614241702E+01  1.360749612602E+01  1.377078607953E+01  1.393603551249E+01
  1.410326793864E+01  1.427250715390E+01  1.444377723975E+01  1.461710256663E+01
  1.479250779743E+01  1.497001789099E+01  1.514965810569E+01  1.533145400295E+01
  1.551543145099E+01  1.570161662840E+01  1.589003602794E+01  1.608071646028E+01
  1.627368505780E+01  1.646896927849E+01  1.666659690984E+01  1.686659607275E+01
  1.706899522563E+01  1.727382316834E+01  1.748110904636E+01  1.769088235491E+01
  1.790317294317E+01  1.811801101849E+01  1.833542715071E+01  1.855545227652E+01
  1.877811770384E+01  1.900345511628E+01  1.923149657768E+01  1.946227453661E+01
  1.969582183105E+01  1.993217169302E+01  2.017135775334E+01  2.041341404638E+01
  2.065837501494E+01  2.090627551511E+01  2.115715082130E+01  2.141103663115E+01
  2.166796907073E+01  2.192798469957E+01  2.219112051597E+01  2.245741396216E+01
  2.272690292971E+01  2.299962576486E+01  2.327562127404E+01  2.355492872933E+01
  2.383758787408E+01  2.412363892857E+01  2.441312259571E+01  2.470608006686E+01
  2.500255302766E+01  2.530258366400E+01  2.560621466796E+01  2.591348924398E+01
  2.622445111491E+01  2.653914452829E+01  2.685761426263E+01  2.717990563378E+01
  2.750606450138E+01  2.783613727540E+01  2.817017092270E+01  2.850821297378E+01
  2.885031152946E+01  2.919651526782E+01  2.954687345103E+01  2.990143593244E+01
  3.026025316363E+01  3.062337620160E+01  3.099085671601E+01  3.136274699661E+01
  3.173909996057E+01  3.211996916009E+01  3.250540879001E+01  3.289547369549E+01
  3.329021937984E+01  3.368970201240E+01  3.409397843655E+01  3.450310617779E+01
  3.491714345192E+01  3.533614917334E+01  3.576018296342E+01  3.618930515898E+01
  3.662357682089E+01  3.706305974274E+01  3.750781645965E+01  3.795791025717E+01
  3.841340518026E+01  3.887436604242E+01  3.934085843493E+01  3.981294873615E+01
  4.029070412098E+01  4.077419257043E+01  4.126348288128E+01  4.175864467585E+01
  4.225974841196E+01  4.276686539291E+01  4.328006777762E+01  4.379942859095E+01
  4.432502173405E+01
</grid-data>
</grid>
<valence-charge total-charge="9" is-unscreening-charge="yes"
 rescaled-to-z-pseudo="no">
<radfunc>
<data npts="457">
  3.893752254193E-02  3.895176541232E-02  3.899573553244E-02  3.906859099180E-02
  3.917003477052E-02  3.930368803369E-02  3.947446523801E-02  3.967062371968E-02
  3.989195455349E-02  4.015109552737E-02  4.044453046608E-02  4.076508818242E-02
  4.115475224901E-02  4.156435732737E-02  4.205103023007E-02  4.254084139903E-02
  4.310956054845E-02  4.365330314603E-02  4.427001651254E-02  4.497004242034E-02
  4.576532696450E-02  4.647936438825E-02  4.727126661114E-02  4.815016296521E-02
  4.912637481257E-02  5.021159246792E-02  5.141908160671E-02  5.241393603635E-02
  5.349313193123E-02  5.466453192877E-02  5.593682485972E-02  5.731962326350E-02
  5.882357338694E-02  6.046047930808E-02  6.224344303129E-02  6.418702262605E-02
  6.630741072804E-02  6.862263598764E-02  7.028419186820E-02  7.204773854761E-02
  7.392028523744E-02  7.590937623648E-02  7.802313451026E-02  8.027030880972E-02
  8.266032458240E-02  8.520333893956E-02  8.791029995033E-02  9.079301054043E-02
  9.386419727535E-02  9.713758430785E-02  1.006279727633E-01  1.043513258258E-01
  1.083248597681E-01  1.125671411418E-01  1.170981903045E-01  1.219395914079E-01
  1.271146089068E-01  1.326483105563E-01  1.385676967623E-01  1.449018360122E-01
  1.516820059482E-01  1.589418394477E-01  1.667174748346E-01  1.750477090567E-01
  1.839741523302E-01  1.935413823496E-01  2.037970957011E-01  2.091989276621E-01
  2.147922535755E-01  2.205839760911E-01  2.265812182607E-01  2.327913269939E-01
  2.392218761836E-01  2.458806694527E-01  2.527757424704E-01  2.599153647816E-01
  2.673080410893E-01  2.749625119240E-01  2.828877536317E-01  2.910929776040E-01
  2.995876286719E-01  3.083813825762E-01  3.174841424255E-01  3.269060340429E-01
  3.366574001017E-01  3.467487929391E-01  3.571909659351E-01  3.679948633359E-01
  3.791716083945E-01  3.907324896971E-01  4.026889455353E-01  4.150525461813E-01
  4.278349739147E-01  4.410480006471E-01  4.547034629831E-01  4.688132345537E-01
  4.833891954545E-01  4.984431986151E-01  5.139870329292E-01  5.300323829663E-01
  5.465907850932E-01  5.636735798291E-01  5.812918602633E-01  5.994564163683E-01
  6.181776750464E-01  6.374656357576E-01  6.573298015854E-01  6.777791056124E-01
  6.988218324897E-01  7.204655351089E-01  7.427169463016E-01  7.655818855217E-01
  7.890651604932E-01  8.131704638421E-01  8.379002647676E-01  8.632556958526E-01
  8.892364351598E-01  9.158405838157E-01  9.430645393416E-01  9.709028650543E-01
  9.993481559332E-01  1.028390901421E+00  1.058019345709E+00  1.088219346156E+00
  1.118974230550E+00  1.150264654074E+00  1.182068456885E+00  1.214360523357E+00
  1.247112644150E+00  1.280293382361E+00  1.313867945155E+00  1.347798062374E+00
  1.382041873755E+00  1.416553826491E+00  1.451284584998E+00  1.486180954834E+00
  1.521185822853E+00  1.556238115716E+00  1.591272779015E+00  1.626220779267E+00
  1.661009131127E+00  1.695560952145E+00  1.729795547412E+00  1.763628526380E+00
  1.796971954077E+00  1.829734538821E+00  1.861821858388E+00  1.893136626367E+00
  1.923579000222E+00  1.953046932228E+00  1.981436564141E+00  2.008642666000E+00
  2.034559119018E+00  2.059079441975E+00  2.082097359918E+00  2.103507413374E+00
  2.123205605546E+00  2.141090084231E+00  2.157061854466E+00  2.171025517037E+00
  2.182890027248E+00  2.192569467469E+00  2.199983826244E+00  2.205059775923E+00
  2.207731440137E+00  2.207941141751E+00  2.205640121473E+00  2.200789216828E+00
  2.193359491024E+00  2.183332801129E+00  2.170702295102E+00  2.155472827565E+00
  2.137661284785E+00  2.117296810102E+00  2.094420922140E+00  2.069087519429E+00
  2.041362766575E+00  2.011324858939E+00  1.979063664692E+00  1.944680245268E+00
  1.908286257486E+00  1.870003242896E+00  1.829961812281E+00  1.788300735480E+00
  1.745165948891E+00  1.700709494941E+00  1.655088409554E+00  1.608463574991E+00
  1.560998556421E+00  1.512858441124E+00  1.464208699253E+00  1.415213823597E+00
  1.366034964079E+00  1.316827134942E+00  1.267738207848E+00  1.218908659374E+00
  1.170470867478E+00  1.122548684949E+00  1.075257063628E+00  1.028701766407E+00
  9.829791655356E-01  9.381761277248E-01  8.943699854911E-01  8.516285930896E-01
  8.100104642673E-01  7.695649879964E-01  7.303327173281E-01  6.923457255839E-01
  6.556281152495E-01  6.201969341890E-01  5.860633073271E-01  5.532327912538E-01
  5.217057413229E-01  4.914776746989E-01  4.625396344936E-01  4.348785511502E-01
  4.084775992790E-01  3.833165480241E-01  3.593721033782E-01  3.366182409076E-01
  3.150265276689E-01  2.945664321961E-01  2.752056217261E-01  2.569102458603E-01
  2.396452061232E-01  2.233744109852E-01  2.080610160549E-01  1.936676492696E-01
  1.801566210232E-01  1.674901192626E-01  1.556303896750E-01  1.445399011559E-01
  1.341814968141E-01  1.245185308255E-01  1.155149914912E-01  1.071356109000E-01
  9.934596163034E-02  9.211254095862E-02  8.540284307299E-02  7.918541981670E-02
  7.342993051270E-02  6.810718144369E-02  6.318915558248E-02  5.864903318554E-02
  5.446120387599E-02  5.060127085142E-02  4.704604785614E-02  4.377354955580E-02
  4.076297594570E-02  3.799469141225E-02  3.545019905159E-02  3.311211083066E-02
  3.096411415755E-02  2.899093540955E-02  2.717830095328E-02  2.551289618146E-02
  2.398232308649E-02  2.257505689111E-02  2.128040225696E-02  2.008844958758E-02
  1.899003192485E-02  1.797668289901E-02  1.704059612409E-02  1.617458633256E-02
  1.537205241817E-02  1.462694241973E-02  1.393372034973E-02  1.328733467137E-02
  1.268318817295E-02  1.211710898504E-02  1.158532252822E-02  1.108442425155E-02
  1.061135310571E-02  1.016336576971E-02  9.738011706464E-03  9.333109152903E-03
  8.946722157666E-03  8.577138768302E-03  8.222850446984E-03  7.882532765692E-03
  7.555027403209E-03  7.239325440346E-03  6.934551928075E-03  6.639951686208E-03
  6.354876277512E-03  6.078772093148E-03  5.811169479170E-03  5.551672829873E-03
  5.299951571440E-03  5.055731958241E-03  4.818789604095E-03  4.588942671945E-03
  4.366045647853E-03  4.149983629375E-03  3.940667064555E-03  3.738026886189E-03
  3.542009996661E-03  3.352575071122E-03  3.169688660387E-03  2.993321588437E-03
  2.823445651514E-03  2.660030635225E-03  2.503041671587E-03  2.352436959171E-03
  2.208165866300E-03  2.070167430348E-03  1.938369256656E-03  1.812686811747E-03
  1.693023082359E-03  1.579268589996E-03  1.471301709939E-03  1.368989258356E-03
  1.272187301883E-03  1.180742143755E-03  1.094491441628E-03  1.013265414877E-03
  9.368881029029E-04  8.651786404328E-04  7.979525206160E-04  7.350228216241E-04
  6.762013771916E-04  6.212998759943E-04  5.701308788062E-04  5.225087459779E-04
  4.782504709049E-04  4.371764178078E-04  3.991109643592E-04  3.638830514774E-04
  3.313266440250E-04  3.012811072231E-04  2.735915043710E-04  2.481088219858E-04
  2.246901287779E-04  2.031986750026E-04  1.835039386895E-04  1.654816250986E-04
  1.490136254918E-04  1.339879409739E-04  1.202985767651E-04  1.078454118351E-04
  9.653404837285E-05  8.627564510015E-05  7.698673797692E-05  6.858905139515E-05
  6.100930253502E-05  5.417900116077E-05  4.803424677472E-05  4.251552472775E-05
  3.756750260590E-05  3.313882797425E-05  2.918192836119E-05  2.565281420379E-05
  2.251088534584E-05  1.971874157911E-05  1.724199764042E-05  1.504910301827E-05
  1.311116687741E-05  1.140178837435E-05  9.896892607624E-06  8.574572420595E-06
  7.414936249718E-06  6.399962185377E-06  5.513358385409E-06  4.740429952057E-06
  4.067952351726E-06  3.484051423717E-06  2.978089989626E-06  2.540561039972E-06
  2.162987439637E-06  1.837828059614E-06  1.558390210031E-06  1.318748219153E-06
  1.113667975502E-06  9.385372258788E-07  7.893014011161E-07  6.624047240879E-07
  5.547363408469E-07  4.635812057600E-07  3.865754450080E-07  3.216659196316E-07
  2.670737091805E-07  2.212612396727E-07  1.829027846769E-07  1.508580755634E-07
  1.241487659906E-07  1.019375061878E-07  8.350939423160E-08  6.825558401228E-08
  5.565884266392E-08  4.528086365171E-08  3.675115524504E-08  2.975733757098E-08
  2.403669467537E-08  1.936884088259E-08  1.556937313187E-08  1.248439279071E-08
  9.985791642714E-09  7.967207271163E-09  6.340562886609E-09  5.033115762009E-09
  3.984946844933E-09  3.146831823208E-09  2.478440948250E-09  1.946821295743E-09
  1.525120898022E-09  1.191519351933E-09  9.283341280873E-10  7.212759215023E-10
  5.588300294591E-10  4.317439594056E-10  3.326042964555E-10  2.554883335991E-10
  1.956781235260E-10  1.494264823146E-10  1.137660933186E-10  8.635425322258E-11
  6.534699798002E-11  4.929736836937E-11  3.707344516092E-11  2.779252211809E-11
  2.076840895896E-11  1.546938171565E-11  1.148473858723E-11  8.498287657152E-12
  6.267399487123E-12  4.606511973667E-12  3.374185087150E-12  2.462976218452E-12
  1.791548861336E-12  1.298543411121E-12  9.378333484227E-13  6.748667170645E-13
  4.838547332702E-13  3.456192121608E-13  2.459504694974E-13  1.743592846444E-13
  1.231319144158E-13  8.661728080685E-14  6.069134899025E-14  4.235620833893E-14
  2.944115523933E-14  2.038070892275E-14  1.405042006116E-14  9.645917874599E-15
  6.594174237208E-15  4.488673212770E-15  3.042244424689E-15  2.052893040236E-15
  1.379151347550E-15  9.223758579788E-16  6.140886077595E-16  4.069657159402E-16
  2.684505280480E-16  0.000000000000E+00  0.000000000000E+00  0.000000000000E+00
  0.000000000000E+00
</data>
</radfunc>
</valence-charge>
<pseudocore-charge matching-radius="1.32916311575"
 number-of-continuous-derivatives="4">
<annotation model-charge-form="Teter function with specified parameters" />
<radfunc>
<data npts="290">
  1.179437719597E+01  1.179410799961E+01  1.179327729057E+01  1.179190201778E+01
  1.178998948423E+01  1.178747393685E+01  1.178426663517E+01  1.178059224686E+01
  1.177645855391E+01  1.177163501749E+01  1.176619418974E+01  1.176027571387E+01
  1.175311639104E+01  1.174563159595E+01  1.173679216174E+01  1.172795354652E+01
  1.171776246154E+01  1.170808933534E+01  1.169719966226E+01  1.168494172026E+01
  1.167114520917E+01  1.165887259600E+01  1.164538508339E+01  1.163056394159E+01
  1.161427916039E+01  1.159638844565E+01  1.157673614113E+01  1.156073907968E+01
  1.154357817799E+01  1.152517059906E+01  1.150542789232E+01  1.148425565713E+01
  1.146155319311E+01  1.143721313817E+01  1.141112109511E+01  1.138315524827E+01
  1.135318597208E+01  1.132107543354E+01  1.129840686744E+01  1.127467613187E+01
  1.124983579721E+01  1.122383655036E+01  1.119662714409E+01  1.116815434768E+01
  1.113836289934E+01  1.110719546085E+01  1.107459257487E+01  1.104049262546E+01
  1.100483180253E+01  1.096754407077E+01  1.092856114382E+01  1.088781246465E+01
  1.084522519275E+01  1.080072419942E+01  1.075423207200E+01  1.070566912830E+01
  1.065495344249E+01  1.060200088373E+01  1.054672516910E+01  1.048903793243E+01
  1.042884881059E+01  1.036606554920E+01  1.030059412968E+01  1.023233891965E+01
  1.016120284895E+01  1.008708761352E+01  1.000989390965E+01  9.970111391324E+00
  9.929521701115E+00  9.888112269692E+00  9.845870521846E+00  9.802783888090E+00
  9.758839816919E+00  9.714025787766E+00  9.668329324653E+00  9.621738010592E+00
  9.574239502730E+00  9.525821548281E+00  9.476472001256E+00  9.426178840016E+00
  9.374930185680E+00  9.322714321388E+00  9.269519712469E+00  9.215335027510E+00
  9.160149160359E+00  9.103951253075E+00  9.046730719854E+00  8.988477271933E+00
  8.929180943496E+00  8.868832118597E+00  8.807421559115E+00  8.744940433736E+00
  8.681380347995E+00  8.616733375360E+00  8.550992089385E+00  8.484149596911E+00
  8.416199572326E+00  8.347136292882E+00  8.276954675042E+00  8.205650311868E+00
  8.133219511412E+00  8.059659336101E+00  7.984967643087E+00  7.909143125521E+00
  7.832185354732E+00  7.754094823252E+00  7.674872988636E+00  7.594522318037E+00
  7.513046333456E+00  7.430449657601E+00  7.346738060281E+00  7.261918505231E+00
  7.175999197299E+00  7.088989629859E+00  7.000900632355E+00  6.911744417839E+00
  6.821534630377E+00  6.730286392164E+00  6.638016350201E+00  6.544742722357E+00
  6.450485342631E+00  6.355265705436E+00  6.259107008679E+00  6.162034195426E+00
  6.064073993931E+00  5.965254955761E+00  5.865607491785E+00  5.765163905736E+00
  5.663958425076E+00  5.562027228869E+00  5.459408472338E+00  5.356142307817E+00
  5.252270901738E+00  5.147838447337E+00  5.042891172711E+00  4.937477343881E+00
  4.831647262500E+00  4.725453257815E+00  4.618949672537E+00  4.512192842216E+00
  4.405241067769E+00  4.298154580761E+00  4.190995501090E+00  4.083827786701E+00
  3.976717174977E+00  3.869731115467E+00  3.762938693631E+00  3.656410545295E+00
  3.550218761531E+00  3.444436783725E+00  3.339139288598E+00  3.234402063018E+00
  3.130301868443E+00  3.026916294920E+00  2.924323604593E+00  2.822602564742E+00
  2.721832270431E+00  2.622091956914E+00  2.523460802028E+00  2.426017718873E+00
  2.329841139162E+00  2.235008787724E+00  2.141597448721E+00  2.049682724267E+00
  1.959338786189E+00  1.870638121844E+00  1.783651274941E+00  1.698446582493E+00
  1.615089909082E+00  1.533644379779E+00  1.454170113113E+00  1.376723955666E+00
  1.301359219888E+00  1.228125426910E+00  1.157068056149E+00  1.088228303635E+00
  1.021642851041E+00  9.573436474489E-01  8.953577059378E-01  8.357069171226E-01
  7.784078817489E-01  7.234717644688E-01  6.709041708709E-01  6.207050497872E-01
  5.728686228115E-01  5.273833428535E-01  4.842318834079E-01  4.433911600501E-01
  4.048323854601E-01  3.685211590491E-01  3.344175919894E-01  3.024764681576E-01
  2.726474411701E-01  2.448752673383E-01  2.191000739919E-01  1.952576622156E-01
  1.732798426283E-01  1.530948023997E-01  1.346275012615E-01  1.178000938264E-01
  1.025323750981E-01  8.874224562584E-02  7.634619236412E-02  6.525978092077E-02
  5.539815454966E-02  4.667653495789E-02  3.901071977215E-02  3.231757134825E-02
  2.651549152197E-02  2.152487689548E-02  1.726854933792E-02  1.367215655741E-02
  1.066453787685E-02  8.178050721080E-03  6.148853795423E-03  4.517143505047E-03
  3.227340822890E-03  2.228226554979E-03  1.473023763366E-03  9.194269754497E-04
  5.295787172665E-04  2.699948385151E-04  1.114410272282E-04  2.876381924245E-05
  6.802677053619E-07  9.531226107059E-06  4.100389028188E-05  8.382981713043E-05
  1.294650691248E-04  1.717594056013E-04  2.066215399423E-04  2.316873963263E-04
  2.459980267185E-04  2.496933903574E-04  2.437275630855E-04  2.296101483063E-04
  2.091777278329E-04  1.843981486199E-04  1.572093252438E-04  1.293930875929E-04
  1.024834613367E-04  7.770767962205E-05  5.595723188133E-05  3.778540074667E-05
  2.342705712150E-05  1.283600571031E-05  5.734919033976E-06  1.672876848681E-06
  8.573790395658E-08  3.549978294334E-07  1.861404272699E-06  4.030370764533E-06
  6.367107369658E-06  8.480315386073E-06  1.009421794632E-05  1.104956114633E-05
  1.129496803709E-05  1.087061507692E-05  9.886593499839E-06  8.498496875665E-06
  6.882737551544E-06  5.213852268498E-06  3.645640913090E-06  2.297436084178E-06
  1.246179494273E-06  5.243446134257E-07  1.231541783071E-07  5.153098264609E-11
  8.904048775689E-08  3.123381292656E-07  5.917981944650E-07  8.587491140299E-07
  1.061220368970E-06  1.167958061185E-06  1.169098896700E-06  1.073820905123E-06
  9.056625610506E-07  6.964540460545E-07  4.799069746945E-07  2.858550607957E-07
  1.359433744052E-07  4.126376870865E-08  2.079510968517E-09  0.000000000000E+00
  0.000000000000E+00  0.000000000000E+00  0.000000000000E+00  0.000000000000E+00
  0.000000000000E+00  0.000000000000E+00
</data>
</radfunc>
</pseudocore-charge>
<semilocal-potentials set="lj">
<slps n="5" l="s" j="0.5" rc="2.27353342651" eref="-0.983172695634">
<radfunc>
<data npts="290">
  1.419944191926E+01  1.419542648102E+01  1.418304356362E+01  1.416257053488E+01
  1.413415620453E+01  1.409688294412E+01  1.404952385876E+01  1.399549242905E+01
  1.393499186808E+01  1.386477327119E+01  1.378605349892E+01  1.370100125951E+01
  1.359891386477E+01  1.349310675064E+01  1.336934634305E+01  1.324687381881E+01
  1.310721952845E+01  1.297618210270E+01  1.283040376344E+01  1.266847132860E+01
  1.248889669900E+01  1.233149387498E+01  1.216099141239E+01  1.197656037988E+01
  1.177736827214E+01  1.156258939564E+01  1.133141709910E+01  1.114681271179E+01
  1.095224198991E+01  1.074741569728E+01  1.053206880367E+01  1.030596524906E+01
  1.006890293660E+01  9.820718897891E+00  9.561294560843E+00  9.290561036664E+00
  9.008504329647E+00  8.715170360884E+00  8.513401039200E+00  8.306716931767E+00
  8.095181782152E+00  7.878873911207E+00  7.657886599344E+00  7.432328395654E+00
  7.202323346493E+00  6.968011136664E+00  6.729547136886E+00  6.487102351999E+00
  6.240863265288E+00  5.991031575274E+00  5.737823822531E+00  5.481470905331E+00
  5.222217484280E+00  4.960321277545E+00  4.696052249744E+00  4.429691699079E+00
  4.161531248746E+00  3.891871750142E+00  3.621022106713E+00  3.349298028580E+00
  3.077020729187E+00  2.804515576213E+00  2.532110709748E+00  2.260135641328E+00
  1.988919847808E+00  1.718791374167E+00  1.450075459275E+00  1.316347751083E+00
  1.183093198345E+00  1.050351079217E+00  9.181602552332E-01  7.865591346559E-01
  6.555856370724E-01  5.252771593097E-01  3.956705427459E-01  2.668020420874E-01
  1.387072956754E-01  1.142129738188E-02 -1.150216298510E-01 -2.405878587815E-01
 -3.652444809054E-01 -4.889593277237E-01 -6.117009902103E-01 -7.334388364550E-01
 -8.541430274625E-01 -9.737845310948E-01 -1.092335134148E+00 -1.209767452565E+00
 -1.326054939782E+00 -1.441171893223E+00 -1.555093458952E+00 -1.667795634508E+00
 -1.779255269935E+00 -1.889450067048E+00 -1.998358576962E+00 -2.105960195914E+00
 -2.212235159434E+00 -2.317164534889E+00 -2.420730212467E+00 -2.522914894637E+00
 -2.623702084145E+00 -2.723076070598E+00 -2.821021915693E+00 -2.917525437158E+00
 -3.012573191455E+00 -3.106152455307E+00 -3.198251206128E+00 -3.288858101395E+00
 -3.377962457039E+00 -3.465554224924E+00 -3.551623969453E+00 -3.636162843388E+00
 -3.719162562921E+00 -3.800615382074E+00 -3.880514066458E+00 -3.958851866473E+00
 -4.035622489965E+00 -4.110820074421E+00 -4.184439158711E+00 -4.256474654438E+00
 -4.326921816918E+00 -4.395776215824E+00 -4.463033705519E+00 -4.528690395095E+00
 -4.592742618136E+00 -4.655186902219E+00 -4.716019938162E+00 -4.775238549021E+00
 -4.832839658839E+00 -4.888820261159E+00 -4.943177387295E+00 -4.995908074354E+00
 -5.047009333046E+00 -5.096478115255E+00 -5.144311281413E+00 -5.190505567688E+00
 -5.235057553030E+00 -5.277963626107E+00 -5.319219952206E+00 -5.358822440167E+00
 -5.396766709455E+00 -5.433048057478E+00 -5.467661427307E+00 -5.500601375950E+00
 -5.531862043401E+00 -5.561437122667E+00 -5.589319831052E+00 -5.615502882983E+00
 -5.639978464706E+00 -5.662738211222E+00 -5.683773185843E+00 -5.703073862813E+00