<?xml version="1.0" encoding="UTF-8" ?>
<psml version="1.1" energy_unit="hartree" length_unit="bohr"
 uuid="a754e740-5146-11e8-6e56-7e78fffdbe38"
 xmlns="http://esl.cecam.org/PSML/ns/1.1">
<provenance creator="ONCVPSP-3.3.0+psml-3.3.0-73 (fully-relativistic)"
 date="2018-05-06">
<annotation action="semilocal-pseudopotential-generation"
 action-cont="projectors-generation" />
<input-file name="oncvpsp-input">
<![CDATA[# atsym z nc nv iexc psfile
Ge 32 6 2 -116133 both
# n l f
1 0 2.0
2 0 2.0
2 1 6.0
3 0 2.0
3 1 6.0
3 2 10.0
4 0 2.0
4 1 2.0
# lmax
2
# l rc ep ncon nbas qcut
0 1.8 0.0 3 7 4.9
1 1.7 0.0 3 7 5.4
2 2.2 0.1 3 7 5.2
# lloc lpopt rc5 dvloc0
4 5 1.6 0.0
# l nproj debl
0 2 2.5
1 2 2.5
2 2 3.0
# icmod fcfact rcfact
1 0.5 0.0
# epsh1 epsh2 depsh
-12.0 12.0 0.02
# rlmax drl
6.0 0.01
 0
]]>
</input-file>
</provenance>
<pseudo-atom-spec atomic-label="Ge" atomic-number="32" z-pseudo="4"
 flavor="Hamann&apos;s oncvpsp" relativity="dirac" spin-dft="no"
 core-corrections="yes">
<annotation pseudo-energy="-3.84642056285" />
<exchange-correlation>
<annotation oncvpsp-xc-code="-116133" oncvpsp-xc-type="libxc-interface" />
<libxc-info number-of-functionals="2">
<functional name="Perdew, Burke &amp; Ernzerhof SOL (GGA)" type="exchange"
 id="116" />
<functional name="Perdew, Burke &amp; Ernzerhof SOL (GGA)" type="correlation"
 id="133" />
</libxc-info>
</exchange-correlation>
<valence-configuration total-valence-charge="4">
<shell n="4" l="s" occupation="2" />
<shell n="4" l="p" occupation="2" />
</valence-configuration>
</pseudo-atom-spec>
<grid npts="457">
<annotation type="sampled from oncvpsp log grid"
 recipe="r(i:1..N) = r1*exp(a*(i-1)) + r=0; resampled"
 recipe-cont="r1: scale; a: step" scale="0.156250000000E-04"
 step="0.119285708653E-01" delta="0.500000000000E-02" rmax="44.0106814606" />
<grid-data>
  0.000000000000E+00  5.025601837514E-03  1.003824527536E-02  1.505896861607E-02
  2.029121445031E-02  2.545292972101E-02  3.080533800935E-02  3.597266729221E-02
  4.101646976877E-02  4.621291924683E-02  5.145031239924E-02  5.660204419540E-02
  6.226962009944E-02  6.769238310509E-02  7.271481084123E-02  7.810987696307E-02
  8.390522932815E-02  8.906182522060E-02  9.453533200659E-02  1.003452262006E-01
  1.065121812926E-01  1.117175309401E-01  1.171772708801E-01  1.229038334035E-01
  1.289102583787E-01  1.352102229449E-01  1.418180726557E-01  1.469850337403E-01
  1.523402464797E-01  1.578905695834E-01  1.636431116494E-01  1.696052402683E-01
  1.757845914596E-01  1.821890794514E-01  1.888269068167E-01  1.957065749787E-01
  2.028368950993E-01  2.102269993637E-01  2.153027200364E-01  2.205009889089E-01
  2.258247647852E-01  2.312770779061E-01  2.368610316751E-01  2.425798044239E-01
  2.484366512219E-01  2.544349057290E-01  2.605779820929E-01  2.668693768925E-01
  2.733126711282E-01  2.799115322600E-01  2.866697162948E-01  2.935910699251E-01
  3.006795327173E-01  3.079391393553E-01  3.153740219359E-01  3.229884123215E-01
  3.307866445486E-01  3.387731572945E-01  3.469524964043E-01  3.553293174774E-01
  3.639083885186E-01  3.726945926510E-01  3.816929308960E-01  3.909085250195E-01
  4.003466204476E-01  4.100125892517E-01  4.199119332066E-01  4.249508764051E-01
  4.300502869219E-01  4.352108903650E-01  4.404334210494E-01  4.457186221020E-01
  4.510672455672E-01  4.564800525140E-01  4.619578131442E-01  4.675013069019E-01
  4.731113225847E-01  4.787886584557E-01  4.845341223572E-01  4.903485318255E-01
  4.962327142074E-01  5.021875067779E-01  5.082137568592E-01  5.143123219415E-01
  5.204840698048E-01  5.267298786425E-01  5.330506371862E-01  5.394472448324E-01
  5.459206117704E-01  5.524716591117E-01  5.591013190210E-01  5.658105348493E-01
  5.726002612674E-01  5.794714644027E-01  5.864251219755E-01  5.934622234392E-01
  6.005837701205E-01  6.077907753619E-01  6.150842646662E-01  6.224652758422E-01
  6.299348591524E-01  6.374940774622E-01  6.451440063917E-01  6.528857344684E-01
  6.607203632820E-01  6.686490076414E-01  6.766727957331E-01  6.847928692819E-01
  6.930103837133E-01  7.013265083179E-01  7.097424264177E-01  7.182593355347E-01
  7.268784475611E-01  7.356009889318E-01  7.444282007990E-01  7.533613392086E-01
  7.624016752791E-01  7.715504953825E-01  7.808091013271E-01  7.901788105430E-01
  7.996609562695E-01  8.092568877447E-01  8.189679703977E-01  8.287955860424E-01
  8.387411330750E-01  8.488060266719E-01  8.589916989919E-01  8.692995993798E-01
  8.797311945724E-01  8.902879689072E-01  9.009714245341E-01  9.117830816285E-01
  9.227244786081E-01  9.337971723514E-01  9.450027384196E-01  9.563427712806E-01
  9.678188845360E-01  9.794327111504E-01  9.911859036842E-01  1.003080134528E+00
  1.015117096143E+00  1.027298501296E+00  1.039626083312E+00  1.052101596312E+00
  1.064726815468E+00  1.077503537253E+00  1.090433579700E+00  1.103518782657E+00
  1.116761008048E+00  1.130162140145E+00  1.143724085827E+00  1.157448774857E+00
  1.171338160155E+00  1.185394218077E+00  1.199618948694E+00  1.214014376078E+00
  1.228582548591E+00  1.243325539174E+00  1.258245445644E+00  1.273344390992E+00
  1.288624523684E+00  1.304088017968E+00  1.319737074184E+00  1.335573919074E+00
  1.351600806103E+00  1.367820015776E+00  1.384233855965E+00  1.400844662237E+00
  1.417654798184E+00  1.434666655762E+00  1.451882655631E+00  1.469305247499E+00
  1.486936910469E+00  1.504780153394E+00  1.522837515235E+00  1.541111565418E+00
  1.559604904203E+00  1.578320163053E+00  1.597260005010E+00  1.616427125070E+00
  1.635824250571E+00  1.655454141578E+00  1.675319591277E+00  1.695423426372E+00
  1.715768507488E+00  1.736357729578E+00  1.757194022333E+00  1.778280350601E+00
  1.799619714808E+00  1.821215151386E+00  1.843069733203E+00  1.865186570001E+00
  1.887568808841E+00  1.910219634547E+00  1.933142270162E+00  1.956339977404E+00
  1.979816057133E+00  2.003573849818E+00  2.027616736016E+00  2.051948136848E+00
  2.076571514490E+00  2.101490372664E+00  2.126708257136E+00  2.152228756222E+00
  2.178055501297E+00  2.204192167312E+00  2.230642473320E+00  2.257410183000E+00
  2.284499105196E+00  2.311913094458E+00  2.339656051592E+00  2.367731924211E+00
  2.396144707301E+00  2.424898443789E+00  2.453997225114E+00  2.483445191816E+00
  2.513246534117E+00  2.543405492527E+00  2.573926358437E+00  2.604813474738E+00
  2.636071236435E+00  2.667704091273E+00  2.699716540368E+00  2.732113138852E+00
  2.764898496518E+00  2.798077278477E+00  2.831654205818E+00  2.865634056288E+00
  2.900021664964E+00  2.934821924943E+00  2.970039788043E+00  3.005680265499E+00
  3.041748428685E+00  3.078249409829E+00  3.115188402747E+00  3.152570663580E+00
  3.190401511543E+00  3.228686329682E+00  3.267430565638E+00  3.306639732426E+00
  3.346319409215E+00  3.386475242125E+00  3.427112945031E+00  3.468238300371E+00
  3.509857159976E+00  3.551975445895E+00  3.594599151246E+00  3.637734341061E+00
  3.681387153154E+00  3.725563798992E+00  3.770270564579E+00  3.815513811354E+00
  3.861299977091E+00  3.907635576816E+00  3.954527203737E+00  4.001981530182E+00
  4.050005308545E+00  4.098605372247E+00  4.147788636714E+00  4.197562100355E+00
  4.247932845559E+00  4.298908039706E+00  4.350494936182E+00  4.402700875416E+00
  4.455533285921E+00  4.508999685352E+00  4.563107681576E+00  4.617864973755E+00
  4.673279353440E+00  4.729358705682E+00  4.786111010150E+00  4.843544342272E+00
  4.901666874379E+00  4.960486876872E+00  5.020012719394E+00  5.080252872027E+00
  5.141215906491E+00  5.202910497369E+00  5.265345423337E+00  5.328529568417E+00
  5.392471923238E+00  5.457181586317E+00  5.522667765353E+00  5.588939778537E+00
  5.656007055880E+00  5.723879140550E+00  5.792565690237E+00  5.862076478520E+00
  5.932421396262E+00  6.003610453017E+00  6.075653778453E+00  6.148561623795E+00
  6.222344363280E+00  6.297012495640E+00  6.372576645587E+00  6.449047565334E+00
  6.526436136118E+00  6.604753369752E+00  6.684010410189E+00  6.764218535111E+00
  6.845389157533E+00  6.927533827423E+00  7.010664233352E+00  7.094792204152E+00
  7.179929710602E+00  7.266088867129E+00  7.353281933535E+00  7.441521316737E+00
  7.530819572538E+00  7.621189407409E+00  7.712643680297E+00  7.805195404461E+00
  7.898857749315E+00  7.993644042306E+00  8.089567770814E+00  8.186642584064E+00
  8.284882295073E+00  8.384300882613E+00  8.484912493205E+00  8.586731443123E+00
  8.689772220441E+00  8.794049487086E+00  8.899578080931E+00  9.006373017902E+00
  9.114449494117E+00  9.223822888046E+00  9.334508762703E+00  9.446522867855E+00
  9.559881142270E+00  9.674599715977E+00  9.790694912569E+00  9.908183251519E+00
  1.002708145054E+01  1.014740642794E+01  1.026917530508E+01  1.039240540874E+01
  1.051711427365E+01  1.064331964493E+01  1.077103948067E+01  1.090029195444E+01
  1.103109545789E+01  1.116346860338E+01  1.129743022662E+01  1.143299938934E+01
  1.157019538202E+01  1.170903772660E+01  1.184954617932E+01  1.199174073347E+01
  1.213564162227E+01  1.228126932174E+01  1.242864455360E+01  1.257778828824E+01
  1.272872174770E+01  1.288146640868E+01  1.303604400558E+01  1.319247653365E+01
  1.335078625205E+01  1.351099568708E+01  1.367312763532E+01  1.383720516694E+01
  1.400325162895E+01  1.417129064849E+01  1.434134613628E+01  1.451344228991E+01
  1.468760359739E+01  1.486385484056E+01  1.504222109865E+01  1.522272775183E+01
  1.540540048485E+01  1.559026529067E+01  1.577734847416E+01  1.596667665585E+01
  1.615827677572E+01  1.635217609703E+01  1.654840221019E+01  1.674698303671E+01
  1.694794683315E+01  1.715132219515E+01  1.735713806149E+01  1.756542371823E+01
  1.777620880285E+01  1.798952330849E+01  1.820539758819E+01  1.842386235925E+01
  1.864494870756E+01  1.886868809205E+01  1.909511234915E+01  1.932425369734E+01
  1.955614474171E+01  1.979081847861E+01  2.002830830035E+01  2.026864799996E+01
  2.051187177596E+01  2.075801423727E+01  2.100711040812E+01  2.125919573301E+01
  2.151430608181E+01  2.177247775479E+01  2.203374748785E+01  2.229815245770E+01
  2.256573028719E+01  2.283651905064E+01  2.311055727925E+01  2.338788396660E+01
  2.366853857420E+01  2.395256103709E+01  2.423999176953E+01  2.453087167077E+01
  2.482524213082E+01  2.512314503639E+01  2.542462277682E+01  2.572971825015E+01
  2.603847486915E+01  2.635093656758E+01  2.666714780639E+01  2.698715358007E+01
  2.731099942303E+01  2.763873141610E+01  2.797039619310E+01  2.830604094741E+01
  2.864571343878E+01  2.898946200005E+01  2.933733554405E+01  2.968938357058E+01
  3.004565617342E+01  3.040620404750E+01  3.077107849607E+01  3.114033143803E+01
  3.151401541528E+01  3.189218360027E+01  3.227488980347E+01  3.266218848111E+01
  3.305413474289E+01  3.345078435980E+01  3.385219377212E+01  3.425842009738E+01
  3.466952113855E+01  3.508555539221E+01  3.550658205692E+01  3.593266104160E+01
  3.636385297410E+01  3.680021920979E+01  3.724182184031E+01  3.768872370239E+01
  3.814098838682E+01  3.859868024746E+01  3.906186441043E+01  3.953060678336E+01
  4.000497406476E+01  4.048503375354E+01  4.097085415858E+01  4.146250440848E+01
  4.196005446138E+01  4.246357511492E+01  4.297313801630E+01  4.348881567249E+01
  4.401068146056E+01
</grid-data>
</grid>
<valence-charge total-charge="4" is-unscreening-charge="yes"
 rescaled-to-z-pseudo="no">
<radfunc>
<data npts="457">
  2.328391129342E-03  2.333151641383E-03  2.347392252498E-03  2.371183348388E-03
  2.406167196731E-03  2.450933437974E-03  2.508195954113E-03  2.574053847236E-03
  2.648470929794E-03  2.735744386768E-03  2.834751910308E-03  2.943131546414E-03
  3.075180767468E-03  3.214341449364E-03  3.354636876736E-03  3.517824397503E-03
  3.707853676686E-03  3.890077809774E-03  4.097377873678E-03  4.333458416345E-03
  4.602631871991E-03  4.845152238127E-03  5.115021408700E-03  5.415606877240E-03
  5.750740505441E-03  6.124790093664E-03  6.542742845690E-03  6.888420111931E-03
  7.264691424182E-03  7.674556876474E-03  8.121344182793E-03  8.608747423826E-03
  9.140870488989E-03  9.722275749896E-03  1.035803854920E-02  1.105380813686E-02
  1.181587573256E-02  1.265125043680E-02  1.325271482090E-02  1.389274517272E-02
  1.457406349399E-02  1.529959652839E-02  1.607249116124E-02  1.689613085330E-02
  1.777415315114E-02  1.871046831295E-02  1.970927908360E-02  2.077510164656E-02
  2.191278777148E-02  2.312754816619E-02  2.442497702855E-02  2.581107777770E-02
  2.729228992525E-02  2.887551702355E-02  3.056815560117E-02  3.237812496323E-02
  3.431389769665E-02  3.638453067642E-02  3.859969631830E-02  4.096971376512E-02
  4.350557962714E-02  4.621899782173E-02  4.912240797187E-02  5.222901172757E-02
  5.555279626776E-02  5.910855412167E-02  6.291189831959E-02  6.491152116496E-02
  6.697927174078E-02  6.911733544615E-02  7.132794937388E-02  7.361340188998E-02
  7.597603204117E-02  7.841822877612E-02  8.094242996515E-02  8.355112120254E-02
  8.624683437483E-02  8.903214597771E-02  9.190967516341E-02  9.488208149977E-02
  9.795206242156E-02  1.011223503537E-01  1.043957094861E-01  1.077749321775E-01
  1.112628349683E-01  1.148622541783E-01  1.185760410671E-01  1.224070565343E-01
  1.263581653362E-01  1.304322297951E-01  1.346321029778E-01  1.389606213210E-01
  1.434205966792E-01  1.480148077743E-01  1.527459910232E-01  1.576168307249E-01
  1.626299485853E-01  1.677878925628E-01  1.730931250173E-01  1.785480101484E-01
  1.841548007100E-01  1.899156239921E-01  1.958324670620E-01  2.019071612621E-01
  2.081413659654E-01  2.145365515903E-01  2.210939818871E-01  2.278146955079E-01
  2.346994868797E-01  2.417488864066E-01  2.489631400329E-01  2.563421882043E-01
  2.638856442755E-01  2.715927724152E-01  2.794624650727E-01  2.874932200751E-01
  2.956831174348E-01  3.040297959575E-01  3.125304297467E-01  3.211817047167E-01
  3.299797952288E-01  3.389203409833E-01  3.479984243045E-01  3.572085479688E-01
  3.665446137361E-01  3.759999017548E-01  3.855670510189E-01  3.952380410669E-01
  4.050041751202E-01  4.148560648661E-01  4.247836170975E-01  4.347760224296E-01
  4.448217463159E-01  4.549085225917E-01  4.650233497745E-01  4.751524903528E-01
  4.852814732915E-01  4.953950999815E-01  5.054774538557E-01  5.155119138853E-01
  5.254811721640E-01  5.353672557735E-01  5.451515531119E-01  5.548148448505E-01
  5.643373396639E-01  5.736987148610E-01  5.828781620178E-01  5.918544376892E-01
  6.006059192485E-01  6.091106658733E-01  6.173464846645E-01  6.252910018501E-01
  6.329217389919E-01  6.402161940734E-01  6.471519273113E-01  6.537066514907E-01
  6.598583265876E-01  6.655852583979E-01  6.708662008535E-01  6.756804616659E-01
  6.800080108952E-01  6.838295920060E-01  6.871268349293E-01  6.898823706155E-01
  6.920799465248E-01  6.937045424671E-01  6.947424861702E-01  6.951815679215E-01
  6.950111535994E-01  6.942222953769E-01  6.928078393571E-01  6.907625293651E-01
  6.880831061000E-01  6.847684008221E-01  6.808194227246E-01  6.762394391207E-01
  6.710340475520E-01  6.652112389128E-01  6.587814506730E-01  6.517576092802E-01
  6.441551608342E-01  6.359920891493E-01  6.272889203657E-01  6.180687133375E-01
  6.083570351200E-01  5.981829803254E-01  5.875824443489E-01  5.765969992751E-01
  5.652681163016E-01  5.536399483666E-01  5.417560233449E-01  5.296519742690E-01
  5.173562477956E-01  5.049004989247E-01  4.923142155348E-01  4.796262252779E-01
  4.668644154281E-01  4.540557008465E-01  4.412259799735E-01  4.284000961549E-01
  4.156018047633E-01  4.028537459479E-01  3.901774228927E-01  3.775931854324E-01
  3.651202188518E-01  3.527765376755E-01  3.405789842361E-01  3.285432317954E-01
  3.166837919800E-01  3.050140262830E-01  2.935461613746E-01  2.822913079599E-01
  2.712594829159E-01  2.604596344380E-01  2.498996699264E-01  2.395864863408E-01
  2.295260027570E-01  2.197231948587E-01  2.101821311067E-01  2.009060103293E-01
  1.918972004869E-01  1.831572783752E-01  1.746870700195E-01  1.664866915699E-01
  1.585555904567E-01  1.508925866208E-01  1.434959136258E-01  1.363632594781E-01
  1.294918069871E-01  1.228782735155E-01  1.165189499790E-01  1.104097389684E-01
  1.045461918804E-01  9.892354495289E-02  9.353675411859E-02  8.838052859572E-02
  8.344936315272E-02  7.873756899143E-02  7.423930320593E-02  6.994859678461E-02
  6.585938113292E-02  6.196551310430E-02  5.826079853576E-02  5.473901429288E-02
  5.139392883744E-02  4.821932133683E-02  4.520899934455E-02  4.235681508496E-02
  3.965668037182E-02  3.710258021555E-02  3.468858515867E-02  3.240886239064E-02
  3.025768569415E-02  2.822944427704E-02  2.631865054462E-02  2.451994686816E-02
  2.282811140494E-02  2.123806302479E-02  1.974486539699E-02  1.834373029003E-02
  1.703002013504E-02  1.579924990184E-02  1.464708833446E-02  1.356935859109E-02
  1.256203833103E-02  1.162125928967E-02  1.074330638023E-02  9.924616359483E-03
  9.161776093013E-03  8.451520454187E-03  7.790729889646E-03  7.176427683107E-03
  6.605776948133E-03  6.076077379659E-03  5.584761793116E-03  5.129392479181E-03
  4.707657401260E-03  4.317366261951E-03  3.956446463745E-03  3.622938988259E-03
  3.314994217149E-03  3.030867716763E-03  2.768916007283E-03  2.527592335872E-03
  2.305442471950E-03  2.101100541300E-03  1.913284914314E-03  1.740794162191E-03
  1.582503093443E-03  1.437358881642E-03  1.304377293877E-03  1.182639028031E-03
  1.071286165625E-03  9.695187457051E-04  8.765914640211E-04  7.918105005920E-04
  7.145304776864E-04  6.441515492460E-04  5.801166218645E-04  5.219087066075E-04
  4.690484002068E-04  4.210914935010E-04  3.776267044118E-04  3.382735322465E-04
  3.026802296945E-04  2.705218885462E-04  2.414986348901E-04  2.153339293477E-04
  1.917729677708E-04  1.705811777546E-04  1.515428063041E-04  1.344595940219E-04
  1.191495312620E-04  1.054456918052E-04  9.319513976393E-05  8.225790554671E-05
  7.250602697030E-05  6.382265178659E-05  5.610119788887E-05  4.924456798097E-05
  4.316441567512E-05  3.778045979073E-05  3.301984409052E-05  2.881653997960E-05
  2.511078965503E-05  2.184858737299E-05  1.898119667980E-05  1.646470156550E-05
  1.425958961045E-05  1.233036529918E-05  1.064519176980E-05  9.175559352237E-06
  7.895979326268E-06  6.783701401874E-06  5.818453490261E-06  4.982202395711E-06
  4.258934116481E-06  3.634452498407E-06  3.096195038089E-06  2.633064684191E-06
  2.235276535814E-06  1.894218386383E-06  1.602324110359E-06  1.352958938280E-06
  1.140315713375E-06  9.593212702150E-07  8.055521224836E-07  6.751586929453E-07
  5.647973639421E-07  4.715696710918E-07  3.929680062242E-07  3.268272377988E-07
  2.712816980004E-07  2.247270252640E-07  1.857863890575E-07  1.532806602352E-07
  1.262021251083E-07  1.036913744938E-07  8.501703036146E-08  6.955800227798E-08
  5.678799363970E-08  4.626200369453E-08  3.760459561040E-08  3.049972337661E-08
  2.468193117874E-08  1.992875811835E-08  1.605419882045E-08  1.290308665300E-08
  1.034628104862E-08  8.276553845566E-09  6.605081734721E-09  5.258462890417E-09
  4.176185758585E-09  3.308486854272E-09  2.614542361458E-09  2.060945406942E-09
  1.620427170189E-09  1.270785562443E-09  9.939901274796E-10  7.754361456578E-10
  6.033247211368E-10  4.681489538396E-10  3.622691935850E-10  2.795628904426E-10
  2.151367355372E-10  1.650906692843E-10  1.263249548075E-10  9.638290513295E-11
  7.332304249239E-11  5.561548255530E-11  4.205819870002E-11  3.170955201028E-11
  2.383408967919E-11  1.785913388851E-11  1.334011902857E-11  9.932999591915E-12
  7.372354882288E-12  5.454069088340E-12  4.021674275144E-12  2.955616328521E-12
  2.164845747813E-12  1.580251460156E-12  1.149550809307E-12  8.333261865455E-13
  6.019614853359E-13  4.332822529919E-13  3.107442402199E-13  2.220478142884E-13
  1.580819004429E-13  1.121219880317E-13  7.922330421177E-14  5.576335798576E-14
  3.909837691638E-14  2.730625695485E-14  1.899497833200E-14  1.316036415451E-14
  9.080892289805E-15  6.240213361297E-15  4.270307747270E-15  2.909953119966E-15
  1.974503421506E-15  1.333990074518E-15  8.973204662853E-16  6.009246221112E-16
  4.006330554673E-16  2.658915488631E-16  1.756586710506E-16  1.155095755638E-16
  7.560063509191E-17  4.924559191314E-17  3.192411013981E-17  2.059465132183E-17
  1.322052046067E-17  8.444518522890E-18  5.366691289330E-18  3.393251704204E-18
  2.134393855622E-18  1.100949152869E-18  0.000000000000E+00  0.000000000000E+00
  0.000000000000E+00  0.000000000000E+00  0.000000000000E+00  0.000000000000E+00
  0.000000000000E+00  0.000000000000E+00  0.000000000000E+00  0.000000000000E+00
  0.000000000000E+00  0.000000000000E+00  0.000000000000E+00  0.000000000000E+00
  0.000000000000E+00  0.000000000000E+00  0.000000000000E+00  0.000000000000E+00
  0.000000000000E+00
</data>
</radfunc>
</valence-charge>
<pseudocore-charge matching-radius="1.69542342637"
 number-of-continuous-derivatives="4">
<annotation model-charge-form="Polynomial" />
<radfunc>
<data npts="290">
  8.776864970921E+00  8.776864962552E+00  8.776864789109E+00  8.776863972880E+00
  8.776861562742E+00  8.776856387816E+00  8.776846389619E+00  8.776830282240E+00
  8.776806270018E+00  8.776770434772E+00  8.776720007680E+00  8.776653228894E+00
  8.776556018595E+00  8.776435363572E+00  8.776295470100E+00  8.776110528658E+00
  8.775866226523E+00  8.775603909819E+00  8.775273538294E+00  8.774857725236E+00
  8.774334730957E+00  8.773821132423E+00  8.773204760415E+00  8.772465426312E+00
  8.771579073821E+00  8.770517063955E+00  8.769245334762E+00  8.768129836423E+00
  8.766853955669E+00  8.765395185977E+00  8.763727968387E+00  8.761823298044E+00
  8.759648284065E+00  8.757165657979E+00  8.754333225739E+00  8.751103257953E+00
  8.747421812787E+00  8.743227985744E+00  8.740113867952E+00  8.736719208205E+00
  8.733019694372E+00  8.728989027530E+00  8.724598774831E+00  8.719818213438E+00
  8.714614165287E+00  8.708950822418E+00  8.702789562721E+00  8.696088755929E+00
  8.688803559831E+00  8.680885706702E+00  8.672283280073E+00  8.662940482071E+00
  8.652797391700E+00  8.641789714561E+00  8.629848524735E+00  8.616899999706E+00
  8.602865149478E+00  8.587659541278E+00  8.571193021554E+00  8.553369437306E+00
  8.534086359171E+00  8.513234809119E+00  8.490698996062E+00  8.466356063231E+00
  8.440075851730E+00  8.411720685322E+00  8.381145182174E+00  8.364977226604E+00
  8.348196100057E+00  8.330781400332E+00  8.312712222303E+00  8.293967157166E+00
  8.274524292669E+00  8.254361214400E+00  8.233455008221E+00  8.211782263939E+00
  8.189319080305E+00  8.166041071428E+00  8.141923374732E+00  8.116940660530E+00
  8.091067143351E+00  8.064276595122E+00  8.036542360324E+00  8.007837373257E+00
  7.978134177525E+00  7.947404947891E+00  7.915621514624E+00  7.882755390489E+00
  7.848777800516E+00  7.813659714706E+00  7.777371883815E+00  7.739884878375E+00
  7.701169131112E+00  7.661194982911E+00  7.619932732506E+00  7.577352690033E+00
  7.533425234631E+00  7.488120876239E+00  7.441410321759E+00  7.393264545739E+00
  7.343654865733E+00  7.292553022489E+00  7.239931265123E+00  7.185762441404E+00
  7.130020093282E+00  7.072678557807E+00  7.013713073505E+00  6.953099892357E+00
  6.890816397417E+00  6.826841226169E+00  6.761154399640E+00  6.693737457297E+00
  6.624573597727E+00  6.553647825050E+00  6.480947101004E+00  6.406460502602E+00
  6.330179385196E+00  6.252097550777E+00  6.172211421265E+00  6.090520216495E+00
  6.007026136548E+00  5.921734548021E+00  5.834654173749E+00  5.745797285422E+00
  5.655179898465E+00  5.562821968459E+00  5.468747588290E+00  5.372985185109E+00
  5.275567716098E+00  5.176532861896E+00  5.075923216459E+00  4.973786471965E+00
  4.870175597273E+00  4.765149008292E+00  4.658770728472E+00  4.551110537495E+00
  4.442244106072E+00  4.332253114596E+00  4.221225353259E+00  4.109254801040E+00
  3.996441680852E+00  3.882892487926E+00  3.768719988380E+00  3.654043184753E+00
  3.538987245128E+00  3.423683392359E+00  3.308268749739E+00  3.192886139419E+00
  3.077683829730E+00  2.962815227570E+00  2.848438511981E+00  2.734716205073E+00
  2.621814676546E+00  2.509903578211E+00  2.399155205132E+00  2.289743780332E+00
  2.181844660406E+00  2.075633459959E+00  1.971285093403E+00  1.868972733554E+00
  1.768866687419E+00  1.671133190860E+00  1.575933125236E+00  1.483420660930E+00
  1.393741834675E+00  1.307033070074E+00  1.223419653481E+00  1.143014180739E+00
  1.065914994059E+00  9.922046327173E-01  9.219483263282E-01  8.551925652148E-01
  7.919637890887E-01  7.322672428061E-01  6.760860566302E-01  6.233806182645E-01
  5.740883150892E-01  5.281237376958E-01  4.853794501393E-01  4.457274485236E-01
  4.090214478054E-01  3.751001573018E-01  3.437917285695E-01  3.149195854006E-01
  2.883097799682E-01  2.637976695728E-01  2.412295481908E-01  2.204620833169E-01
  2.013616927432E-01  1.838039502646E-01  1.676730201060E-01  1.528611196880E-01
  1.392680101937E-01  1.268005142693E-01  1.153720600868E-01  1.049022509133E-01
  9.531645926723E-02  8.654544469890E-02  7.852499420111E-02  7.119558423945E-02
  6.450206338798E-02  5.839335455965E-02  5.282217583363E-02  4.774477890069E-02
  4.312070417144E-02  3.891255162069E-02  3.508576647208E-02  3.160843886096E-02
  2.845111664822E-02  2.558663059461E-02  2.298993114133E-02  2.063793607992E-02
  1.850938843137E-02  1.658472389038E-02  1.484594722641E-02  1.327651706788E-02
  1.186123852925E-02  1.058616317310E-02  9.438495830305E-03  8.406507831186E-03
  7.479456228301E-03  6.647508618704E-03  5.901673198483E-03  5.233733706312E-03
  4.636188935108E-03  4.102196511891E-03  3.625520665604E-03  3.200483721015E-03
  2.821921073940E-03  2.485139419011E-03  2.185878016037E-03  1.920272794846E-03
  1.684823111328E-03  1.476360979333E-03  1.292022614183E-03  1.129222133874E-03
  9.856272736208E-04  8.591369783789E-04  7.478607462614E-04  6.500996035826E-04
  5.643285995018E-04  4.891807150513E-04  4.234320877018E-04  3.659884586035E-04
  3.158727552614E-04  2.722137277077E-04  2.342355612214E-04  2.012483933678E-04
  1.726396675862E-04  1.478662597785E-04  1.264473183484E-04  1.079577619305E-04
  9.202238264358E-05  7.831050611403E-05  6.653116274919E-05  5.642872780981E-05
  4.777899074104E-05  4.038561697959E-05  3.407696806610E-05  2.870324836352E-05
  2.413394901789E-05  2.025556200290E-05  1.696953916865E-05  1.419047317186E-05
  1.184447900426E-05  9.867756562473E-06  8.205316319499E-06  6.809851670925E-06
  5.640742940600E-06  4.663179346596E-06  3.847386452029E-06  3.167947761518E-06
  2.603210176850E-06  2.134763998974E-06  1.746989061929E-06  1.426659411905E-06
  1.162599705198E-06  9.453871964732E-07  7.670938270903E-07  6.210635062377E-07
  5.017202086241E-07  4.044029951631E-07  3.252245006835E-07  2.609498285050E-07
  2.088931487863E-07  1.668296188744E-07  1.329205322544E-07  1.056498608304E-07
  8.377058568867E-08  6.625941662510E-08
</data>
</radfunc>
</pseudocore-charge>
<semilocal-potentials set="scalar_relativistic">
<slps n="4" l="s" rc="1.82121515139">
<radfunc>
<data npts="290">
  6.215025821428E+01  6.211341468887E+01  6.200350287181E+01  6.182088615051E+01
  6.155462051716E+01  6.121777169945E+01  6.079310010085E+01  6.031308494494E+01
  5.978119068037E+01  5.917114421089E+01  5.849637053422E+01  5.777793584778E+01
  5.692982903040E+01  5.606677668018E+01  5.522688756117E+01  5.428593958371E+01
  5.323598912426E+01  5.227240029943E+01  5.122414191699E+01  5.008800423237E+01
  4.886156862111E+01  4.781440278652E+01  4.670830225219E+01  4.554360602599E+01
  4.432124960023E+01  4.304281188041E+01  4.171055119641E+01  4.067778834895E+01
  3.961791087993E+01  3.853265111233E+01  3.742395750826E+01  3.629398519984E+01
  3.514508286620E+01  3.397977602793E+01  3.280074693897E+01  3.161081136393E+01
  3.041289263360E+01  2.920999346571E+01  2.840679995448E+01  2.760365935549E+01
  2.680148150123E+01  2.600117167324E+01  2.520362653200E+01  2.440973013333E+01
  2.362035006951E+01  2.283633377100E+01  2.205850500212E+01  2.128766058131E+01
  2.052456735273E+01  1.976995943250E+01  1.902453574876E+01  1.828895789035E+01
  1.756384827495E+01  1.684978864296E+01  1.614731887936E+01  1.545693616187E+01
  1.477909442977E+01  1.411420416447E+01  1.346263246960E+01  1.282470343584E+01
  1.220069877313E+01  1.159085869110E+01  1.099538300693E+01  1.041443245872E+01
  9.848130201696E+00  9.296563464031E+00  8.759785339259E+00  8.496949731789E+00
  8.237816692074E+00  7.982384120097E+00  7.730648155068E+00  7.482603241263E+00
  7.238242194443E+00  6.997556268710E+00  6.760535223634E+00  6.527167391527E+00
  6.297439744687E+00  6.071337962509E+00  5.848846498305E+00  5.629948645709E+00
  5.414626604548E+00  5.202861546046E+00  4.994633677255E+00  4.789922304590E+00
  4.588705896363E+00  4.390962144209E+00  4.196668023301E+00  4.005799851251E+00
  3.818333345606E+00  3.634243679843E+00  3.453505537762E+00  3.276093166208E+00
  3.101980426009E+00  2.931140841074E+00  2.763547645529E+00  2.599173828854E+00
  2.437992178892E+00  2.279975322692E+00  2.125095765068E+00  1.973325924830E+00
  1.824638168575E+00  1.679004841985E+00  1.536398298539E+00  1.396790925564E+00
  1.260155167559E+00  1.126463546688E+00  9.956886804027E-01  8.678032960877E-01
  7.427802426746E-01  6.205924991472E-01  5.012131798711E-01  3.846155366831E-01
  2.707729576815E-01  1.596589626619E-01  5.124719515423E-02 -5.448858898031E-02
 -1.575745364171E-01 -2.580367147184E-01 -3.559011341646E-01 -4.511937730510E-01
 -5.439406064120E-01 -6.341676381122E-01 -7.219009362151E-01 -8.071666715109E-01
 -8.899911590472E-01 -9.704009024645E-01 -1.048422640895E+00 -1.124083398129E+00
 -1.197410533688E+00 -1.268431795398E+00 -1.337175372947E+00 -1.403669951868E+00
 -1.467944767271E+00 -1.530029656558E+00 -1.589955110238E+00 -1.647752319846E+00
 -1.703453221840E+00 -1.757090536184E+00 -1.808697798211E+00 -1.858309382143E+00
 -1.905960514512E+00 -1.951687275516E+00 -1.995526586138E+00 -2.037516178658E+00
 -2.077694547999E+00 -2.116100881090E+00 -2.152774961270E+00 -2.187757044559E+00
 -2.221087704446E+00 -2.252807641767E+00 -2.282957456167E+00 -2.311577375721E+00
 -2.338706941409E+00 -2.364384643500E+00 -2.388647507355E+00 -2.411530626859E+00
 -2.433066644579E+00 -2.453285178865E+00 -2.472212199314E+00 -2.489869353348E+00