Ge    ONCVPSP-3.3.0  r_core=   1.82122   1.71577   2.20419
32.0000      4.0000      180506    zatom,zion,pspd
8 -116133   2     4   600     0    pspcod,pspxc,lmax,lloc,mmax,r2well
5.99000000  0.50000000  0.00000000    rchrg fchrg qchrg
2     3     4     0    nproj
3     1           extension_switch
4     4     0    nprojso
0                         6.4561126709282D-01  6.5033909116105D+00
1  0.0000000000000D+00 -2.9300450954395D-11  1.3901657602844D-11
2  1.0000000000000D-02 -1.1848631411535D-02  2.7914041273360D-02
3  2.0000000000000D-02 -2.3713397188307D-02  5.5831789197646D-02
4  3.0000000000000D-02 -3.5610191819525D-02  8.3756828820484D-02
5  4.0000000000000D-02 -4.7554431490846D-02  1.1169250268265D-01
6  5.0000000000000D-02 -5.9560818546448D-02  1.3964179131050D-01
7  6.0000000000000D-02 -7.1643110267000D-02  1.6760719579352D-01
8  7.0000000000000D-02 -8.3813893367763D-02  1.9559062312590D-01
9  8.0000000000000D-02 -9.6084365591746D-02  2.2359327497668D-01
10  9.0000000000000D-02 -1.0846412573647D-01  2.5161554053631D-01
11  1.0000000000000D-01 -1.2096097340957D-01  2.7965689406646D-01
12  1.1000000000000D-01 -1.3358071975868D-01  3.0771579775637D-01
13  1.2000000000000D-01 -1.4632701036426D-01  3.3578961046247D-01
14  1.3000000000000D-01 -1.5920116142158D-01  3.6387450287781D-01
15  1.4000000000000D-01 -1.7220201026958D-01  3.9196537964572D-01
16  1.5000000000000D-01 -1.8532578124963D-01  4.2005580889662D-01
17  1.6000000000000D-01 -1.9856596779834D-01  4.4813795964960D-01
18  1.7000000000000D-01 -2.1191323159373D-01  4.7620254747983D-01
19  1.8000000000000D-01 -2.2535531948537D-01  5.0423878881137D-01
20  1.9000000000000D-01 -2.3887699884627D-01  5.3223436415053D-01
21  2.0000000000000D-01 -2.5246001188734D-01  5.6017539052913D-01
22  2.1000000000000D-01 -2.6608304937588D-01  5.8804640338019D-01
23  2.2000000000000D-01 -2.7972174409677D-01  6.1583034801958D-01
24  2.3000000000000D-01 -2.9334868429047D-01  6.4350858085793D-01
25  2.4000000000000D-01 -3.0693344719550D-01  6.7106088041666D-01
26  2.5000000000000D-01 -3.2044265271542D-01  6.9846546817118D-01
27  2.6000000000000D-01 -3.3384003712216D-01  7.2569903919293D-01
28  2.7000000000000D-01 -3.4708654659917D-01  7.5273680251114D-01
29  2.8000000000000D-01 -3.6014045031961D-01  7.7955253106358D-01
30  2.9000000000000D-01 -3.7295747264835D-01  8.0611862105567D-01
31  3.0000000000000D-01 -3.8549094395031D-01  8.3240616049701D-01
32  3.1000000000000D-01 -3.9769196938458D-01  8.5838500663565D-01
33  3.2000000000000D-01 -4.0950961496302D-01  8.8402387196317D-01
34  3.3000000000000D-01 -4.2089111005341D-01  9.0929041841679D-01
35  3.4000000000000D-01 -4.3178206541397D-01  9.3415135936106D-01
36  3.5000000000000D-01 -4.4212670575498D-01  9.5857256888841D-01
37  3.6000000000000D-01 -4.5186811573842D-01  9.8251919793823D-01
38  3.7000000000000D-01 -4.6094849824533D-01  1.0059557966956D+00
39  3.8000000000000D-01 -4.6930944366647D-01  1.0288464426958D+00
40  3.9000000000000D-01 -4.7689220890184D-01  1.0511548740282D+00
41  4.0000000000000D-01 -4.8363800469248D-01  1.0728446270029D+00
42  4.1000000000000D-01 -4.8948828985161D-01  1.0938791776178D+00
43  4.2000000000000D-01 -4.9438507091363D-01  1.1142220861408D+00
44  4.3000000000000D-01 -4.9827120567683D-01  1.1338371441005D+00
45  4.4000000000000D-01 -5.0109070908272D-01  1.1526885229648D+00
46  4.5000000000000D-01 -5.0278905984794D-01  1.1707409237717D+00
47  4.6000000000000D-01 -5.0331350624666D-01  1.1879597269714D+00
48  4.7000000000000D-01 -5.0261336943156D-01  1.2043111417293D+00
49  4.8000000000000D-01 -5.0064034267998D-01  1.2197623539427D+00
50  4.9000000000000D-01 -4.9734878495790D-01  1.2342816722235D+00
51  5.0000000000000D-01 -4.9269600721046D-01  1.2478386711083D+00
52  5.1000000000000D-01 -4.8664254981094D-01  1.2604043307657D+00
53  5.2000000000000D-01 -4.7915244963197D-01  1.2719511724868D+00
54  5.3000000000000D-01 -4.7019349524322D-01  1.2824533892629D+00
55  5.4000000000000D-01 -4.5973746878842D-01  1.2918869707743D+00
56  5.5000000000000D-01 -4.4776037315002D-01  1.3002298221428D+00
57  5.6000000000000D-01 -4.3424264307515D-01  1.3074618758275D+00
58  5.7000000000000D-01 -4.1916933900648D-01  1.3135651960759D+00
59  5.8000000000000D-01 -4.0253032244148D-01  1.3185240753799D+00
60  5.9000000000000D-01 -3.8432041172783D-01  1.3223251224226D+00
61  6.0000000000000D-01 -3.6453951729511D-01  1.3249573410449D+00
62  6.1000000000000D-01 -3.4319275541963D-01  1.3264121998052D+00
63  6.2000000000000D-01 -3.2029053972316D-01  1.3266836917517D+00
64  6.3000000000000D-01 -2.9584864971321D-01  1.3257683840750D+00
65  6.4000000000000D-01 -2.6988827578542D-01  1.3236654573616D+00
66  6.5000000000000D-01 -2.4243604022425D-01  1.3203767342188D+00
67  6.6000000000000D-01 -2.1352399385784D-01  1.3159066970978D+00
68  6.7000000000000D-01 -1.8318958814340D-01  1.3102624951940D+00
69  6.8000000000000D-01 -1.5147562258569D-01  1.3034539403622D+00
70  6.9000000000000D-01 -1.1843016751330D-01  1.2954934920384D+00
71  7.0000000000000D-01 -8.4106462365028D-02  1.2863962312171D+00
72  7.1000000000000D-01 -4.8562789763510D-02  1.2761798235893D+00
73  7.2000000000000D-01 -1.1862325778149D-02  1.2648644720023D+00
74  7.3000000000000D-01  2.5927033097051D-02  1.2524728584576D+00
75  7.4000000000000D-01  6.4732865604980D-02  1.2390300759158D+00
76  7.5000000000000D-01  1.0447844325980D-01  1.2245635502328D+00
77  7.6000000000000D-01  1.4508296887519D-01  1.2091029526002D+00
78  7.7000000000000D-01  1.8646183509507D-01  1.1926801029115D+00
79  7.8000000000000D-01  2.2852690182941D-01  1.1753288645262D+00
80  7.9000000000000D-01  2.7118679139805D-01  1.1570850309420D+00
81  8.0000000000000D-01  3.1434720008846D-01  1.1379862049337D+00
82  8.1000000000000D-01  3.5791122474740D-01  1.1180716707493D+00
83  8.2000000000000D-01  4.0177970294317D-01  1.0973822599939D+00
84  8.3000000000000D-01  4.4585156516207D-01  1.0759602118608D+00
85  8.4000000000000D-01  4.9002419743656D-01  1.0538490283994D+00
86  8.5000000000000D-01  5.3419381274426D-01  1.0310933255307D+00
87  8.6000000000000D-01  5.7825582946937D-01  1.0077386805459D+00
88  8.7000000000000D-01  6.2210525517574D-01  9.8383147683561D-01
89  8.8000000000000D-01  6.6563707391183D-01  9.5941874661094D-01
90  8.9000000000000D-01  7.0874663524499D-01  9.3454801238717D-01
91  9.0000000000000D-01  7.5133004321119D-01  9.0926712800067D-01
92  9.1000000000000D-01  7.9328454336315D-01  8.8362411993206D-01
93  9.2000000000000D-01  8.3450890610759D-01  8.5766702970167D-01
94  9.3000000000000D-01  8.7490380453874D-01  8.3144375809452D-01
95  9.4000000000000D-01  9.1437218500145D-01  8.0500191195836D-01
96  9.5000000000000D-01  9.5281962865305D-01  7.7838865430039D-01
97  9.6000000000000D-01  9.9015470233758D-01  7.5165055838645D-01
98  9.7000000000000D-01  1.0262892971398D+00  7.2483346652079D-01
99  9.8000000000000D-01  1.0611389530483D+00  6.9798235415489D-01
100  9.9000000000000D-01  1.0946231682278D+00  6.7114119994124D-01
101  1.0000000000000D+00  1.1266656914785D+00  6.4435286231044D-01
102  1.0100000000000D+00  1.1571947965456D+00  6.1765896311240D-01
103  1.0200000000000D+00  1.1861435370346D+00  5.9109977881832D-01
104  1.0300000000000D+00  1.2134499807858D+00  5.6471413973583D-01
105  1.0400000000000D+00  1.2390574226672D+00  5.3853933764278D-01
106  1.0500000000000D+00  1.2629145748505D+00  5.1261104219550D-01
107  1.0600000000000D+00  1.2849757337557D+00  4.8696322641487D-01
108  1.0700000000000D+00  1.3052009229529D+00  4.6162810150591D-01
109  1.0800000000000D+00  1.3235560114461D+00  4.3663606120746D-01
110  1.0900000000000D+00  1.3400128068744D+00  4.1201563581784D-01
111  1.1000000000000D+00  1.3545491232940D+00  3.8779345598738D-01
112  1.1100000000000D+00  1.3671488233343D+00  3.6399422631156D-01
113  1.1200000000000D+00  1.3778018346233D+00  3.4064070871272D-01
114  1.1300000000000D+00  1.3865041405334D+00  3.1775371553309D-01
115  1.1400000000000D+00  1.3932577453938D+00  2.9535211221881D-01
116  1.1500000000000D+00  1.3980706144583D+00  2.7345282941545D-01
117  1.1600000000000D+00  1.4009565889955D+00  2.5207088426074D-01
118  1.1700000000000D+00  1.4019352770312D+00  2.3121941059378D-01
119  1.1800000000000D+00  1.4010319203459D+00  2.1090969776744D-01
120  1.1900000000000D+00  1.3982772384471D+00  1.9115123770510D-01
121  1.2000000000000D+00  1.3937072503183D+00  1.7195177980708D-01
122  1.2100000000000D+00  1.3873630748658D+00  1.5331739326642D-01
123  1.2200000000000D+00  1.3792907110557D+00  1.3525253632514D-01
124  1.2300000000000D+00  1.3695407987841D+00  1.1776013198241D-01
125  1.2400000000000D+00  1.3581683616443D+00  1.0084164962146D-01
126  1.2500000000000D+00  1.3452325327851D+00  8.4497192011365D-02
127  1.2600000000000D+00  1.3307962651012D+00  6.8725587125076D-02
128  1.2700000000000D+00  1.3149260270652D+00  5.3524484189729D-02
129  1.2800000000000D+00  1.2976914855396D+00  3.8890453383143D-02
130  1.2900000000000D+00  1.2791651769169D+00  2.4819088585163D-02
131  1.3000000000000D+00  1.2594221679844D+00  1.1305112583120D-02
132  1.3100000000000D+00  1.2385397078947D+00 -1.6575158545698D-03
133  1.3200000000000D+00  1.2165968726363D+00 -1.4075493628640D-02
134  1.3300000000000D+00  1.1936742033978D+00 -2.5956064261325D-02
135  1.3400000000000D+00  1.1698533401670D+00 -3.7306908695302D-02
136  1.3500000000000D+00  1.1452166519465D+00 -4.8136036509982D-02
137  1.3600000000000D+00  1.1198468648688D+00 -5.8451678054451D-02
138  1.3700000000000D+00  1.0938266894696D+00 -6.8262177990842D-02
139  1.3800000000000D+00  1.0672384484030D+00 -7.7575890748512D-02
140  1.3900000000000D+00  1.0401637056770D+00 -8.6401078274920D-02
141  1.4000000000000D+00  1.0126828985961D+00 -9.4745810530826D-02
142  1.4100000000000D+00  9.8487497343651D-01 -1.0261786908392D-01
143  1.4200000000000D+00  9.5681702574596D-01 -1.1002465408992D-01
144  1.4300000000000D+00  9.2858394633435D-01 -1.1697309503625D-01
145  1.4400000000000D+00  9.0024807356459D-01 -1.2346956538763D-01
146  1.4500000000000D+00  8.7187885285183D-01 -1.2951980142740D-01
147  1.4600000000000D+00  8.4354250394324D-01 -1.3512882541394D-01
148  1.4700000000000D+00  8.1530169648959D-01 -1.4030087314424D-01
149  1.4800000000000D+00  7.8721523457707D-01 -1.4503932609199D-01
150  1.4900000000000D+00  7.5933775030726D-01 -1.4934664800166D-01
151  1.5000000000000D+00  7.3171940708676D-01 -1.5322432610135D-01
152  1.5100000000000D+00  7.0440561251220D-01 -1.5667281671777D-01
153  1.5200000000000D+00  6.7743674122881D-01 -1.5969149531781D-01
154  1.5300000000000D+00  6.5084786770240D-01 -1.6227861078678D-01
155  1.5400000000000D+00  6.2466850887285D-01 -1.6443124377260D-01
156  1.5500000000000D+00  5.9892237672866D-01 -1.6614526895221D-01
157  1.5600000000000D+00  5.7362714005416D-01 -1.6741532083446D-01
158  1.5700000000000D+00  5.4879419209224D-01 -1.6823476251268D-01
159  1.5800000000000D+00  5.2442844656031D-01 -1.6859565999536D-01
160  1.5900000000000D+00  5.0052808778882D-01 -1.6848875207914D-01
161  1.6000000000000D+00  4.7708456981050D-01 -1.6790345682169D-01
162  1.6100000000000D+00  4.5408195492822D-01 -1.6682778363857D-01
163  1.6200000000000D+00  4.3149685413988D-01 -1.6524833653986D-01
164  1.6300000000000D+00  4.0929993143516D-01 -1.6315052357604D-01
165  1.6400000000000D+00  3.8745703767989D-01 -1.6051873779523D-01
166  1.6500000000000D+00  3.6593086883417D-01 -1.5733664775704D-01
167  1.6600000000000D+00  3.4468198462806D-01 -1.5358739927324D-01
168  1.6700000000000D+00  3.2366845797206D-01 -1.4925364178177D-01
169  1.6800000000000D+00  3.0284604820962D-01 -1.4431762517078D-01
170  1.6900000000000D+00  2.8216850941725D-01 -1.3876130841851D-01
171  1.7000000000000D+00  2.6158771031036D-01 -1.3256644468536D-01
172  1.7100000000000D+00  2.4105381880969D-01 -1.2571467199094D-01
173  1.7200000000000D+00  2.2051545301381D-01 -1.1818759688144D-01
174  1.7300000000000D+00  1.9991982662606D-01 -1.0996687415201D-01
175  1.7400000000000D+00  1.7921288369023D-01 -1.0103428161107D-01
176  1.7500000000000D+00  1.5833942183729D-01 -9.1371789268430D-02
177  1.7600000000000D+00  1.3720008137799D-01 -8.0932576967832D-02
178  1.7700000000000D+00  1.1575471340298D-01 -6.9710649491686D-02
179  1.7800000000000D+00  9.4357431389775D-02 -5.7965610905354D-02
180  1.7900000000000D+00  7.2987080085653D-02 -4.5704911427873D-02
181  1.8000000000000D+00  4.9306915083672D-02 -3.1388815497772D-02
182  1.8100000000000D+00  2.2408532062960D-02 -1.4443752157777D-02
183  1.8200000000000D+00  1.5806086314418D-03 -1.0812647370587D-03
184  1.8300000000000D+00 -4.4825277073790D-03  2.8535445597114D-03
185  1.8400000000000D+00 -1.4841008904900D-03  9.5157609474050D-04
186  1.8500000000000D+00  9.8527954276019D-04 -6.2590767423724D-04
187  1.8600000000000D+00  6.6899297194569D-04 -4.2570818787758D-04
188  1.8700000000000D+00 -1.0147107236876D-04  6.3488975416166D-05
189  1.8800000000000D+00 -1.2407101903045D-04  7.7695785999851D-05
190  1.8900000000000D+00  2.0178257205223D-07 -6.7088989736998D-08
191  1.9000000000000D+00  5.1457236126294D-07 -1.7108583517696D-07
192  1.9100000000000D+00  1.5171200468385D-08 -5.0441448048246D-09
193  1.9200000000000D+00  0.0000000000000D+00  0.0000000000000D+00
194  1.9300000000000D+00  0.0000000000000D+00  0.0000000000000D+00
195  1.9400000000000D+00  0.0000000000000D+00  0.0000000000000D+00
196  1.9500000000000D+00  0.0000000000000D+00  0.0000000000000D+00
197  1.9600000000000D+00  0.0000000000000D+00  0.0000000000000D+00
198  1.9700000000000D+00  0.0000000000000D+00  0.0000000000000D+00
199  1.9800000000000D+00  0.0000000000000D+00  0.0000000000000D+00
200  1.9900000000000D+00  0.0000000000000D+00  0.0000000000000D+00
201  2.0000000000000D+00  0.0000000000000D+00  0.0000000000000D+00
202  2.0100000000000D+00  0.0000000000000D+00  0.0000000000000D+00
203  2.0200000000000D+00  0.0000000000000D+00  0.0000000000000D+00
204  2.0300000000000D+00  0.0000000000000D+00  0.0000000000000D+00
205  2.0400000000000D+00  0.0000000000000D+00  0.0000000000000D+00
206  2.0500000000000D+00  0.0000000000000D+00  0.0000000000000D+00
207  2.0600000000000D+00  0.0000000000000D+00  0.0000000000000D+00
208  2.0700000000000D+00  0.0000000000000D+00  0.0000000000000D+00
209  2.0800000000000D+00  0.0000000000000D+00  0.0000000000000D+00
210  2.0900000000000D+00  0.0000000000000D+00  0.0000000000000D+00
211  2.1000000000000D+00  0.0000000000000D+00  0.0000000000000D+00
212  2.1100000000000D+00  0.0000000000000D+00  0.0000000000000D+00
213  2.1200000000000D+00  0.0000000000000D+00  0.0000000000000D+00
214  2.1300000000000D+00  0.0000000000000D+00  0.0000000000000D+00
215  2.1400000000000D+00  0.0000000000000D+00  0.0000000000000D+00
216  2.1500000000000D+00  0.0000000000000D+00  0.0000000000000D+00
217  2.1600000000000D+00  0.0000000000000D+00  0.0000000000000D+00
218  2.1700000000000D+00  0.0000000000000D+00  0.0000000000000D+00
219  2.1800000000000D+00  0.0000000000000D+00  0.0000000000000D+00
220  2.1900000000000D+00  0.0000000000000D+00  0.0000000000000D+00
221  2.2000000000000D+00  0.0000000000000D+00  0.0000000000000D+00
222  2.2100000000000D+00  0.0000000000000D+00  0.0000000000000D+00
223  2.2200000000000D+00  0.0000000000000D+00  0.0000000000000D+00
224  2.2300000000000D+00  0.0000000000000D+00  0.0000000000000D+00
225  2.2400000000000D+00  0.0000000000000D+00  0.0000000000000D+00
226  2.2500000000000D+00  0.0000000000000D+00  0.0000000000000D+00
227  2.2600000000000D+00  0.0000000000000D+00  0.0000000000000D+00
228  2.2700000000000D+00  0.0000000000000D+00  0.0000000000000D+00
229  2.2800000000000D+00  0.0000000000000D+00  0.0000000000000D+00
230  2.2900000000000D+00  0.0000000000000D+00  0.0000000000000D+00
231  2.3000000000000D+00  0.0000000000000D+00  0.0000000000000D+00
232  2.3100000000000D+00  0.0000000000000D+00  0.0000000000000D+00
233  2.3200000000000D+00  0.0000000000000D+00  0.0000000000000D+00
234  2.3300000000000D+00  0.0000000000000D+00  0.0000000000000D+00
235  2.3400000000000D+00  0.0000000000000D+00  0.0000000000000D+00
236  2.3500000000000D+00  0.0000000000000D+00  0.0000000000000D+00
237  2.3600000000000D+00  0.0000000000000D+00  0.0000000000000D+00
238  2.3700000000000D+00  0.0000000000000D+00  0.0000000000000D+00
239  2.3800000000000D+00  0.0000000000000D+00  0.0000000000000D+00
240  2.3900000000000D+00  0.0000000000000D+00  0.0000000000000D+00
241  2.4000000000000D+00  0.0000000000000D+00  0.0000000000000D+00
242  2.4100000000000D+00  0.0000000000000D+00  0.0000000000000D+00
243  2.4200000000000D+00  0.0000000000000D+00  0.0000000000000D+00
244  2.4300000000000D+00  0.0000000000000D+00  0.0000000000000D+00
245  2.4400000000000D+00  0.0000000000000D+00  0.0000000000000D+00
246  2.4500000000000D+00  0.0000000000000D+00  0.0000000000000D+00
247  2.4600000000000D+00  0.0000000000000D+00  0.0000000000000D+00
248  2.4700000000000D+00  0.0000000000000D+00  0.0000000000000D+00
249  2.4800000000000D+00  0.0000000000000D+00  0.0000000000000D+00
250  2.4900000000000D+00  0.0000000000000D+00  0.0000000000000D+00
251  2.5000000000000D+00  0.0000000000000D+00  0.0000000000000D+00
252  2.5100000000000D+00  0.0000000000000D+00  0.0000000000000D+00
253  2.5200000000000D+00  0.0000000000000D+00  0.0000000000000D+00
254  2.5300000000000D+00  0.0000000000000D+00  0.0000000000000D+00
255  2.5400000000000D+00  0.0000000000000D+00  0.0000000000000D+00
256  2.5500000000000D+00  0.0000000000000D+00  0.0000000000000D+00
257  2.5600000000000D+00  0.0000000000000D+00  0.0000000000000D+00
258  2.5700000000000D+00  0.0000000000000D+00  0.0000000000000D+00
259  2.5800000000000D+00  0.0000000000000D+00  0.0000000000000D+00
260  2.5900000000000D+00  0.0000000000000D+00  0.0000000000000D+00
261  2.6000000000000D+00  0.0000000000000D+00  0.0000000000000D+00
262  2.6100000000000D+00  0.0000000000000D+00  0.0000000000000D+00
263  2.6200000000000D+00  0.0000000000000D+00  0.0000000000000D+00
264  2.6300000000000D+00  0.0000000000000D+00  0.0000000000000D+00
265  2.6400000000000D+00  0.0000000000000D+00  0.0000000000000D+00
266  2.6500000000000D+00  0.0000000000000D+00  0.0000000000000D+00
267  2.6600000000000D+00  0.0000000000000D+00  0.0000000000000D+00
268  2.6700000000000D+00  0.0000000000000D+00  0.0000000000000D+00
269  2.6800000000000D+00  0.0000000000000D+00  0.0000000000000D+00
270  2.6900000000000D+00  0.0000000000000D+00  0.0000000000000D+00
271  2.7000000000000D+00  0.0000000000000D+00  0.0000000000000D+00
272  2.7100000000000D+00  0.0000000000000D+00  0.0000000000000D+00
273  2.7200000000000D+00  0.0000000000000D+00  0.0000000000000D+00
274  2.7300000000000D+00  0.0000000000000D+00  0.0000000000000D+00
275  2.7400000000000D+00  0.0000000000000D+00  0.0000000000000D+00
276  2.7500000000000D+00  0.0000000000000D+00  0.0000000000000D+00
277  2.7600000000000D+00  0.0000000000000D+00  0.0000000000000D+00
278  2.7700000000000D+00  0.0000000000000D+00  0.0000000000000D+00
279  2.7800000000000D+00  0.0000000000000D+00  0.0000000000000D+00
280  2.7900000000000D+00  0.0000000000000D+00  0.0000000000000D+00
281  2.8000000000000D+00  0.0000000000000D+00  0.0000000000000D+00
282  2.8100000000000D+00  0.0000000000000D+00  0.0000000000000D+00
283  2.8200000000000D+00  0.0000000000000D+00  0.0000000000000D+00
284  2.8300000000000D+00  0.0000000000000D+00  0.0000000000000D+00
285  2.8400000000000D+00  0.0000000000000D+00  0.0000000000000D+00
286  2.8500000000000D+00  0.0000000000000D+00  0.0000000000000D+00
287  2.8600000000000D+00  0.0000000000000D+00  0.0000000000000D+00
288  2.8700000000000D+00  0.0000000000000D+00  0.0000000000000D+00
289  2.8800000000000D+00  0.0000000000000D+00  0.0000000000000D+00
290  2.8900000000000D+00  0.0000000000000D+00  0.0000000000000D+00
291  2.9000000000000D+00  0.0000000000000D+00  0.0000000000000D+00
292  2.9100000000000D+00  0.0000000000000D+00  0.0000000000000D+00
293  2.9200000000000D+00  0.0000000000000D+00  0.0000000000000D+00
294  2.9300000000000D+00  0.0000000000000D+00  0.0000000000000D+00
295  2.9400000000000D+00  0.0000000000000D+00  0.0000000000000D+00
296  2.9500000000000D+00  0.0000000000000D+00  0.0000000000000D+00
297  2.9600000000000D+00  0.0000000000000D+00  0.0000000000000D+00
298  2.9700000000000D+00  0.0000000000000D+00  0.0000000000000D+00
299  2.9800000000000D+00  0.0000000000000D+00  0.0000000000000D+00
300  2.9900000000000D+00  0.0000000000000D+00  0.0000000000000D+00
301  3.0000000000000D+00  0.0000000000000D+00  0.0000000000000D+00
302  3.0100000000000D+00  0.0000000000000D+00  0.0000000000000D+00
303  3.0200000000000D+00  0.0000000000000D+00  0.0000000000000D+00
304  3.0300000000000D+00  0.0000000000000D+00  0.0000000000000D+00
305  3.0400000000000D+00  0.0000000000000D+00  0.0000000000000D+00
306  3.0500000000000D+00  0.0000000000000D+00  0.0000000000000D+00
307  3.0600000000000D+00  0.0000000000000D+00  0.0000000000000D+00
308  3.0700000000000D+00  0.0000000000000D+00  0.0000000000000D+00
309  3.0800000000000D+00  0.0000000000000D+00  0.0000000000000D+00
310  3.0900000000000D+00  0.0000000000000D+00  0.0000000000000D+00
311  3.1000000000000D+00  0.0000000000000D+00  0.0000000000000D+00
312  3.1100000000000D+00  0.0000000000000D+00  0.0000000000000D+00
313  3.1200000000000D+00  0.0000000000000D+00  0.0000000000000D+00
314  3.1300000000000D+00  0.0000000000000D+00  0.0000000000000D+00
315  3.1400000000000D+00  0.0000000000000D+00  0.0000000000000D+00
316  3.1500000000000D+00  0.0000000000000D+00  0.0000000000000D+00
317  3.1600000000000D+00  0.0000000000000D+00  0.0000000000000D+00
318  3.1700000000000D+00  0.0000000000000D+00  0.0000000000000D+00
319  3.1800000000000D+00  0.0000000000000D+00  0.0000000000000D+00
320  3.1900000000000D+00  0.0000000000000D+00  0.0000000000000D+00
321  3.2000000000000D+00  0.0000000000000D+00  0.0000000000000D+00
322  3.2100000000000D+00  0.0000000000000D+00  0.0000000000000D+00
323  3.2200000000000D+00  0.0000000000000D+00  0.0000000000000D+00
324  3.2300000000000D+00  0.0000000000000D+00  0.0000000000000D+00
325  3.2400000000000D+00  0.0000000000000D+00  0.0000000000000D+00
326  3.2500000000000D+00  0.0000000000000D+00  0.0000000000000D+00
327  3.2600000000000D+00  0.0000000000000D+00  0.0000000000000D+00
328  3.2700000000000D+00  0.0000000000000D+00  0.0000000000000D+00
329  3.2800000000000D+00  0.0000000000000D+00  0.0000000000000D+00
330  3.2900000000000D+00  0.0000000000000D+00  0.0000000000000D+00
331  3.3000000000000D+00  0.0000000000000D+00  0.0000000000000D+00
332  3.3100000000000D+00  0.0000000000000D+00  0.0000000000000D+00
333  3.3200000000000D+00  0.0000000000000D+00  0.0000000000000D+00
334  3.3300000000000D+00  0.0000000000000D+00  0.0000000000000D+00
335  3.3400000000000D+00  0.0000000000000D+00  0.0000000000000D+00
336  3.3500000000000D+00  0.0000000000000D+00  0.0000000000000D+00
337  3.3600000000000D+00  0.0000000000000D+00  0.0000000000000D+00
338  3.3700000000000D+00  0.0000000000000D+00  0.0000000000000D+00
339  3.3800000000000D+00  0.0000000000000D+00  0.0000000000000D+00
340  3.3900000000000D+00  0.0000000000000D+00  0.0000000000000D+00
341  3.4000000000000D+00  0.0000000000000D+00  0.0000000000000D+00
342  3.4100000000000D+00  0.0000000000000D+00  0.0000000000000D+00
343  3.4200000000000D+00  0.0000000000000D+00  0.0000000000000D+00
344  3.4300000000000D+00  0.0000000000000D+00  0.0000000000000D+00
345  3.4400000000000D+00  0.0000000000000D+00  0.0000000000000D+00
346  3.4500000000000D+00  0.0000000000000D+00  0.0000000000000D+00
347  3.4600000000000D+00  0.0000000000000D+00  0.0000000000000D+00
348  3.4700000000000D+00  0.0000000000000D+00  0.0000000000000D+00
349  3.4800000000000D+00  0.0000000000000D+00  0.0000000000000D+00
350  3.4900000000000D+00  0.0000000000000D+00  0.0000000000000D+00
351  3.5000000000000D+00  0.0000000000000D+00  0.0000000000000D+00
352  3.5100000000000D+00  0.0000000000000D+00  0.0000000000000D+00
353  3.5200000000000D+00  0.0000000000000D+00  0.0000000000000D+00
354  3.5300000000000D+00  0.0000000000000D+00  0.0000000000000D+00
355  3.5400000000000D+00  0.0000000000000D+00  0.0000000000000D+00
356  3.5500000000000D+00  0.0000000000000D+00  0.0000000000000D+00
357  3.5600000000000D+00  0.0000000000000D+00  0.0000000000000D+00
358  3.5700000000000D+00  0.0000000000000D+00  0.0000000000000D+00
359  3.5800000000000D+00  0.0000000000000D+00  0.0000000000000D+00
360  3.5900000000000D+00  0.0000000000000D+00  0.0000000000000D+00
361  3.6000000000000D+00  0.0000000000000D+00  0.0000000000000D+00
362  3.6100000000000D+00  0.0000000000000D+00  0.0000000000000D+00
363  3.6200000000000D+00  0.0000000000000D+00  0.0000000000000D+00
364  3.6300000000000D+00  0.0000000000000D+00  0.0000000000000D+00
365  3.6400000000000D+00  0.0000000000000D+00  0.0000000000000D+00
366  3.6500000000000D+00  0.0000000000000D+00  0.0000000000000D+00
367  3.6600000000000D+00  0.0000000000000D+00  0.0000000000000D+00
368  3.6700000000000D+00  0.0000000000000D+00  0.0000000000000D+00
369  3.6800000000000D+00  0.0000000000000D+00  0.0000000000000D+00
370  3.6900000000000D+00  0.0000000000000D+00  0.0000000000000D+00
371  3.7000000000000D+00  0.0000000000000D+00  0.0000000000000D+00
372  3.7100000000000D+00  0.0000000000000D+00  0.0000000000000D+00
373  3.7200000000000D+00  0.0000000000000D+00  0.0000000000000D+00
374  3.7300000000000D+00  0.0000000000000D+00  0.0000000000000D+00
375  3.7400000000000D+00  0.0000000000000D+00  0.0000000000000D+00
376  3.7500000000000D+00  0.0000000000000D+00  0.0000000000000D+00
377  3.7600000000000D+00  0.0000000000000D+00  0.0000000000000D+00
378  3.7700000000000D+00  0.0000000000000D+00  0.0000000000000D+00
379  3.7800000000000D+00  0.0000000000000D+00  0.0000000000000D+00
380  3.7900000000000D+00  0.0000000000000D+00  0.0000000000000D+00
381  3.8000000000000D+00  0.0000000000000D+00  0.0000000000000D+00
382  3.8100000000000D+00  0.0000000000000D+00  0.0000000000000D+00
383  3.8200000000000D+00  0.0000000000000D+00  0.0000000000000D+00
384  3.8300000000000D+00  0.0000000000000D+00  0.0000000000000D+00
385  3.8400000000000D+00  0.0000000000000D+00  0.0000000000000D+00
386  3.8500000000000D+00  0.0000000000000D+00  0.0000000000000D+00
387  3.8600000000000D+00  0.0000000000000D+00  0.0000000000000D+00
388  3.8700000000000D+00  0.0000000000000D+00  0.0000000000000D+00
389  3.8800000000000D+00  0.0000000000000D+00  0.0000000000000D+00
390  3.8900000000000D+00  0.0000000000000D+00  0.0000000000000D+00
391  3.9000000000000D+00  0.0000000000000D+00  0.0000000000000D+00
392  3.9100000000000D+00  0.0000000000000D+00  0.0000000000000D+00
393  3.9200000000000D+00  0.0000000000000D+00  0.0000000000000D+00
394  3.9300000000000D+00  0.0000000000000D+00  0.0000000000000D+00
395  3.9400000000000D+00  0.0000000000000D+00  0.0000000000000D+00
396  3.9500000000000D+00  0.0000000000000D+00  0.0000000000000D+00
397  3.9600000000000D+00  0.0000000000000D+00  0.0000000000000D+00
398  3.9700000000000D+00  0.0000000000000D+00  0.0000000000000D+00
399  3.9800000000000D+00  0.0000000000000D+00  0.0000000000000D+00
400  3.9900000000000D+00  0.0000000000000D+00  0.0000000000000D+00
401  4.0000000000000D+00  0.0000000000000D+00  0.0000000000000D+00
402  4.0100000000000D+00  0.0000000000000D+00  0.0000000000000D+00
403  4.0200000000000D+00  0.0000000000000D+00  0.0000000000000D+00
404  4.0300000000000D+00  0.0000000000000D+00  0.0000000000000D+00
405  4.0400000000000D+00  0.0000000000000D+00  0.0000000000000D+00
406  4.0500000000000D+00  0.0000000000000D+00  0.0000000000000D+00
407  4.0600000000000D+00  0.0000000000000D+00  0.0000000000000D+00
408  4.0700000000000D+00  0.0000000000000D+00  0.0000000000000D+00
409  4.0800000000000D+00  0.0000000000000D+00  0.0000000000000D+00
410  4.0900000000000D+00  0.0000000000000D+00  0.0000000000000D+00
411  4.1000000000000D+00  0.0000000000000D+00  0.0000000000000D+00
412  4.1100000000000D+00  0.0000000000000D+00  0.0000000000000D+00
413  4.1200000000000D+00  0.0000000000000D+00  0.0000000000000D+00
414  4.1300000000000D+00  0.0000000000000D+00  0.0000000000000D+00
415  4.1400000000000D+00  0.0000000000000D+00  0.0000000000000D+00
416  4.1500000000000D+00  0.0000000000000D+00  0.0000000000000D+00
417  4.1600000000000D+00  0.0000000000000D+00  0.0000000000000D+00
418  4.1700000000000D+00  0.0000000000000D+00  0.0000000000000D+00
419  4.1800000000000D+00  0.0000000000000D+00  0.0000000000000D+00
420  4.1900000000000D+00  0.0000000000000D+00  0.0000000000000D+00
421  4.2000000000000D+00  0.0000000000000D+00  0.0000000000000D+00
422  4.2100000000000D+00  0.0000000000000D+00  0.0000000000000D+00
423  4.2200000000000D+00  0.0000000000000D+00  0.0000000000000D+00
424  4.2300000000000D+00  0.0000000000000D+00  0.0000000000000D+00
425  4.2400000000000D+00  0.0000000000000D+00  0.0000000000000D+00
426  4.2500000000000D+00  0.0000000000000D+00  0.0000000000000D+00
427  4.2600000000000D+00  0.0000000000000D+00  0.0000000000000D+00
428  4.2700000000000D+00  0.0000000000000D+00  0.0000000000000D+00
429  4.2800000000000D+00  0.0000000000000D+00  0.0000000000000D+00
430  4.2900000000000D+00  0.0000000000000D+00  0.0000000000000D+00
431  4.3000000000000D+00  0.0000000000000D+00  0.0000000000000D+00
432  4.3100000000000D+00  0.0000000000000D+00  0.0000000000000D+00
433  4.3200000000000D+00  0.0000000000000D+00  0.0000000000000D+00
434  4.3300000000000D+00  0.0000000000000D+00  0.0000000000000D+00
435  4.3400000000000D+00  0.0000000000000D+00  0.0000000000000D+00
436  4.3500000000000D+00  0.0000000000000D+00  0.0000000000000D+00
437  4.3600000000000D+00  0.0000000000000D+00  0.0000000000000D+00
438  4.3700000000000D+00  0.0000000000000D+00  0.0000000000000D+00
439  4.3800000000000D+00  0.0000000000000D+00  0.0000000000000D+00
440  4.3900000000000D+00  0.0000000000000D+00  0.0000000000000D+00
441  4.4000000000000D+00  0.0000000000000D+00  0.0000000000000D+00
442  4.4100000000000D+00  0.0000000000000D+00  0.0000000000000D+00
443  4.4200000000000D+00  0.0000000000000D+00  0.0000000000000D+00