<?xml version="1.0" encoding="UTF-8" ?>
<psml version="1.1" energy_unit="hartree" length_unit="bohr"
 uuid="d6e68590-539e-11e8-4cee-ed0bbf6eaa49"
 xmlns="http://esl.cecam.org/PSML/ns/1.1">
<provenance creator="ONCVPSP-3.3.0+psml-3.3.0-73 (fully-relativistic)"
 date="2018-05-09">
<annotation action="semilocal-pseudopotential-generation"
 action-cont="projectors-generation" />
<input-file name="oncvpsp-input">
<![CDATA[# atsym z nc nv iexc psfile
Ge 32 5 3 -116133 both
# n l f
1 0 2.0
2 0 2.0
2 1 6.0
3 0 2.0
3 1 6.0
3 2 10.0
4 0 2.0
4 1 2.0
# lmax
2
# l rc ep ncon nbas qcut
0 1.9 0.0 4 7 4.7
1 1.8 0.0 4 7 5.0
2 1.9 0.0 4 7 8.8
# lloc lpopt rc5 dvloc0
4 5 1.75 0.0
# l nproj debl
0 2 3.0
1 2 2.5
2 2 1.5
# icmod fcfact
3 5 1.4
# epsh1 epsh2 depsh
-12.0 12.0 0.02
# rlmax drl
6.0 0.01
 0
]]>
</input-file>
</provenance>
<pseudo-atom-spec atomic-label="Ge" atomic-number="32" z-pseudo="14"
 flavor="Hamann&apos;s oncvpsp" relativity="dirac" spin-dft="no"
 core-corrections="yes">
<annotation pseudo-energy="-79.7563219900" />
<exchange-correlation>
<annotation oncvpsp-xc-code="-116133" oncvpsp-xc-type="libxc-interface" />
<libxc-info number-of-functionals="2">
<functional name="Perdew, Burke &amp; Ernzerhof SOL (GGA)" type="exchange"
 id="116" />
<functional name="Perdew, Burke &amp; Ernzerhof SOL (GGA)" type="correlation"
 id="133" />
</libxc-info>
</exchange-correlation>
<valence-configuration total-valence-charge="14">
<shell n="3" l="d" occupation="10" />
<shell n="4" l="s" occupation="2" />
<shell n="4" l="p" occupation="2" />
</valence-configuration>
</pseudo-atom-spec>
<grid npts="457">
<annotation type="sampled from oncvpsp log grid"
 recipe="r(i:1..N) = r1*exp(a*(i-1)) + r=0; resampled"
 recipe-cont="r1: scale; a: step" scale="0.156250000000E-04"
 step="0.119285708653E-01" delta="0.500000000000E-02" rmax="44.0106814606" />
<grid-data>
  0.000000000000E+00  5.025601837514E-03  1.003824527536E-02  1.505896861607E-02
  2.029121445031E-02  2.545292972101E-02  3.080533800935E-02  3.597266729221E-02
  4.101646976877E-02  4.621291924683E-02  5.145031239924E-02  5.660204419540E-02
  6.226962009944E-02  6.769238310509E-02  7.271481084123E-02  7.810987696307E-02
  8.390522932815E-02  8.906182522060E-02  9.453533200659E-02  1.003452262006E-01
  1.065121812926E-01  1.117175309401E-01  1.171772708801E-01  1.229038334035E-01
  1.289102583787E-01  1.352102229449E-01  1.418180726557E-01  1.469850337403E-01
  1.523402464797E-01  1.578905695834E-01  1.636431116494E-01  1.696052402683E-01
  1.757845914596E-01  1.821890794514E-01  1.888269068167E-01  1.957065749787E-01
  2.028368950993E-01  2.102269993637E-01  2.153027200364E-01  2.205009889089E-01
  2.258247647852E-01  2.312770779061E-01  2.368610316751E-01  2.425798044239E-01
  2.484366512219E-01  2.544349057290E-01  2.605779820929E-01  2.668693768925E-01
  2.733126711282E-01  2.799115322600E-01  2.866697162948E-01  2.935910699251E-01
  3.006795327173E-01  3.079391393553E-01  3.153740219359E-01  3.229884123215E-01
  3.307866445486E-01  3.387731572945E-01  3.469524964043E-01  3.553293174774E-01
  3.639083885186E-01  3.726945926510E-01  3.816929308960E-01  3.909085250195E-01
  4.003466204476E-01  4.100125892517E-01  4.199119332066E-01  4.249508764051E-01
  4.300502869219E-01  4.352108903650E-01  4.404334210494E-01  4.457186221020E-01
  4.510672455672E-01  4.564800525140E-01  4.619578131442E-01  4.675013069019E-01
  4.731113225847E-01  4.787886584557E-01  4.845341223572E-01  4.903485318255E-01
  4.962327142074E-01  5.021875067779E-01  5.082137568592E-01  5.143123219415E-01
  5.204840698048E-01  5.267298786425E-01  5.330506371862E-01  5.394472448324E-01
  5.459206117704E-01  5.524716591117E-01  5.591013190210E-01  5.658105348493E-01
  5.726002612674E-01  5.794714644027E-01  5.864251219755E-01  5.934622234392E-01
  6.005837701205E-01  6.077907753619E-01  6.150842646662E-01  6.224652758422E-01
  6.299348591524E-01  6.374940774622E-01  6.451440063917E-01  6.528857344684E-01
  6.607203632820E-01  6.686490076414E-01  6.766727957331E-01  6.847928692819E-01
  6.930103837133E-01  7.013265083179E-01  7.097424264177E-01  7.182593355347E-01
  7.268784475611E-01  7.356009889318E-01  7.444282007990E-01  7.533613392086E-01
  7.624016752791E-01  7.715504953825E-01  7.808091013271E-01  7.901788105430E-01
  7.996609562695E-01  8.092568877447E-01  8.189679703977E-01  8.287955860424E-01
  8.387411330750E-01  8.488060266719E-01  8.589916989919E-01  8.692995993798E-01
  8.797311945724E-01  8.902879689072E-01  9.009714245341E-01  9.117830816285E-01
  9.227244786081E-01  9.337971723514E-01  9.450027384196E-01  9.563427712806E-01
  9.678188845360E-01  9.794327111504E-01  9.911859036842E-01  1.003080134528E+00
  1.015117096143E+00  1.027298501296E+00  1.039626083312E+00  1.052101596312E+00
  1.064726815468E+00  1.077503537253E+00  1.090433579700E+00  1.103518782657E+00
  1.116761008048E+00  1.130162140145E+00  1.143724085827E+00  1.157448774857E+00
  1.171338160155E+00  1.185394218077E+00  1.199618948694E+00  1.214014376078E+00
  1.228582548591E+00  1.243325539174E+00  1.258245445644E+00  1.273344390992E+00
  1.288624523684E+00  1.304088017968E+00  1.319737074184E+00  1.335573919074E+00
  1.351600806103E+00  1.367820015776E+00  1.384233855965E+00  1.400844662237E+00
  1.417654798184E+00  1.434666655762E+00  1.451882655631E+00  1.469305247499E+00
  1.486936910469E+00  1.504780153394E+00  1.522837515235E+00  1.541111565418E+00
  1.559604904203E+00  1.578320163053E+00  1.597260005010E+00  1.616427125070E+00
  1.635824250571E+00  1.655454141578E+00  1.675319591277E+00  1.695423426372E+00
  1.715768507488E+00  1.736357729578E+00  1.757194022333E+00  1.778280350601E+00
  1.799619714808E+00  1.821215151386E+00  1.843069733203E+00  1.865186570001E+00
  1.887568808841E+00  1.910219634547E+00  1.933142270162E+00  1.956339977404E+00
  1.979816057133E+00  2.003573849818E+00  2.027616736016E+00  2.051948136848E+00
  2.076571514490E+00  2.101490372664E+00  2.126708257136E+00  2.152228756222E+00
  2.178055501297E+00  2.204192167312E+00  2.230642473320E+00  2.257410183000E+00
  2.284499105196E+00  2.311913094458E+00  2.339656051592E+00  2.367731924211E+00
  2.396144707301E+00  2.424898443789E+00  2.453997225114E+00  2.483445191816E+00
  2.513246534117E+00  2.543405492527E+00  2.573926358437E+00  2.604813474738E+00
  2.636071236435E+00  2.667704091273E+00  2.699716540368E+00  2.732113138852E+00
  2.764898496518E+00  2.798077278477E+00  2.831654205818E+00  2.865634056288E+00
  2.900021664964E+00  2.934821924943E+00  2.970039788043E+00  3.005680265499E+00
  3.041748428685E+00  3.078249409829E+00  3.115188402747E+00  3.152570663580E+00
  3.190401511543E+00  3.228686329682E+00  3.267430565638E+00  3.306639732426E+00
  3.346319409215E+00  3.386475242125E+00  3.427112945031E+00  3.468238300371E+00
  3.509857159976E+00  3.551975445895E+00  3.594599151246E+00  3.637734341061E+00
  3.681387153154E+00  3.725563798992E+00  3.770270564579E+00  3.815513811354E+00
  3.861299977091E+00  3.907635576816E+00  3.954527203737E+00  4.001981530182E+00
  4.050005308545E+00  4.098605372247E+00  4.147788636714E+00  4.197562100355E+00
  4.247932845559E+00  4.298908039706E+00  4.350494936182E+00  4.402700875416E+00
  4.455533285921E+00  4.508999685352E+00  4.563107681576E+00  4.617864973755E+00
  4.673279353440E+00  4.729358705682E+00  4.786111010150E+00  4.843544342272E+00
  4.901666874379E+00  4.960486876872E+00  5.020012719394E+00  5.080252872027E+00
  5.141215906491E+00  5.202910497369E+00  5.265345423337E+00  5.328529568417E+00
  5.392471923238E+00  5.457181586317E+00  5.522667765353E+00  5.588939778537E+00
  5.656007055880E+00  5.723879140550E+00  5.792565690237E+00  5.862076478520E+00
  5.932421396262E+00  6.003610453017E+00  6.075653778453E+00  6.148561623795E+00
  6.222344363280E+00  6.297012495640E+00  6.372576645587E+00  6.449047565334E+00
  6.526436136118E+00  6.604753369752E+00  6.684010410189E+00  6.764218535111E+00
  6.845389157533E+00  6.927533827423E+00  7.010664233352E+00  7.094792204152E+00
  7.179929710602E+00  7.266088867129E+00  7.353281933535E+00  7.441521316737E+00
  7.530819572538E+00  7.621189407409E+00  7.712643680297E+00  7.805195404461E+00
  7.898857749315E+00  7.993644042306E+00  8.089567770814E+00  8.186642584064E+00
  8.284882295073E+00  8.384300882613E+00  8.484912493205E+00  8.586731443123E+00
  8.689772220441E+00  8.794049487086E+00  8.899578080931E+00  9.006373017902E+00
  9.114449494117E+00  9.223822888046E+00  9.334508762703E+00  9.446522867855E+00
  9.559881142270E+00  9.674599715977E+00  9.790694912569E+00  9.908183251519E+00
  1.002708145054E+01  1.014740642794E+01  1.026917530508E+01  1.039240540874E+01
  1.051711427365E+01  1.064331964493E+01  1.077103948067E+01  1.090029195444E+01
  1.103109545789E+01  1.116346860338E+01  1.129743022662E+01  1.143299938934E+01
  1.157019538202E+01  1.170903772660E+01  1.184954617932E+01  1.199174073347E+01
  1.213564162227E+01  1.228126932174E+01  1.242864455360E+01  1.257778828824E+01
  1.272872174770E+01  1.288146640868E+01  1.303604400558E+01  1.319247653365E+01
  1.335078625205E+01  1.351099568708E+01  1.367312763532E+01  1.383720516694E+01
  1.400325162895E+01  1.417129064849E+01  1.434134613628E+01  1.451344228991E+01
  1.468760359739E+01  1.486385484056E+01  1.504222109865E+01  1.522272775183E+01
  1.540540048485E+01  1.559026529067E+01  1.577734847416E+01  1.596667665585E+01
  1.615827677572E+01  1.635217609703E+01  1.654840221019E+01  1.674698303671E+01
  1.694794683315E+01  1.715132219515E+01  1.735713806149E+01  1.756542371823E+01
  1.777620880285E+01  1.798952330849E+01  1.820539758819E+01  1.842386235925E+01
  1.864494870756E+01  1.886868809205E+01  1.909511234915E+01  1.932425369734E+01
  1.955614474171E+01  1.979081847861E+01  2.002830830035E+01  2.026864799996E+01
  2.051187177596E+01  2.075801423727E+01  2.100711040812E+01  2.125919573301E+01
  2.151430608181E+01  2.177247775479E+01  2.203374748785E+01  2.229815245770E+01
  2.256573028719E+01  2.283651905064E+01  2.311055727925E+01  2.338788396660E+01
  2.366853857420E+01  2.395256103709E+01  2.423999176953E+01  2.453087167077E+01
  2.482524213082E+01  2.512314503639E+01  2.542462277682E+01  2.572971825015E+01
  2.603847486915E+01  2.635093656758E+01  2.666714780639E+01  2.698715358007E+01
  2.731099942303E+01  2.763873141610E+01  2.797039619310E+01  2.830604094741E+01
  2.864571343878E+01  2.898946200005E+01  2.933733554405E+01  2.968938357058E+01
  3.004565617342E+01  3.040620404750E+01  3.077107849607E+01  3.114033143803E+01
  3.151401541528E+01  3.189218360027E+01  3.227488980347E+01  3.266218848111E+01
  3.305413474289E+01  3.345078435980E+01  3.385219377212E+01  3.425842009738E+01
  3.466952113855E+01  3.508555539221E+01  3.550658205692E+01  3.593266104160E+01
  3.636385297410E+01  3.680021920979E+01  3.724182184031E+01  3.768872370239E+01
  3.814098838682E+01  3.859868024746E+01  3.906186441043E+01  3.953060678336E+01
  4.000497406476E+01  4.048503375354E+01  4.097085415858E+01  4.146250440848E+01
  4.196005446138E+01  4.246357511492E+01  4.297313801630E+01  4.348881567249E+01
  4.401068146056E+01
</grid-data>
</grid>
<valence-charge total-charge="14" is-unscreening-charge="yes"
 rescaled-to-z-pseudo="no">
<radfunc>
<data npts="457">
  1.426133254324E-03  1.431180028842E-03  1.452031850069E-03  1.506045914703E-03
  1.628795624128E-03  1.860465673385E-03  2.277541530142E-03  2.922548434522E-03
  3.860902037445E-03  5.239542641579E-03  7.159751748221E-03  9.685995039950E-03
  1.334777119483E-02  1.788098242606E-02  2.313016219461E-02  3.006575700722E-02
  3.922690329130E-02  4.906631730516E-02  6.146417203916E-02  7.707744816741E-02
  9.672742047391E-02  1.160343944800E-01  1.392135682754E-01  1.670236305643E-01
  2.003655660509E-01  2.403072104559E-01  2.881113279769E-01  3.300107080326E-01
  3.778887710041E-01  4.325613882688E-01  4.949467872821E-01  5.660762408740E-01
  6.471053392124E-01  7.393257255159E-01  8.441771220601E-01  9.632594053714E-01
  1.098344406665E+00  1.251387013447E+00  1.364444314122E+00  1.487118939117E+00
  1.620137102987E+00  1.764265972539E+00  1.920313765063E+00  2.089129405653E+00
  2.271601659760E+00  2.468657647627E+00  2.681260637381E+00  2.910407003507E+00
  3.157122227354E+00  3.422455806493E+00  3.707474930527E+00  4.013256772663E+00
  4.340879239594E+00  4.691410017502E+00  5.065893750030E+00  5.465337185703E+00
  5.890692138385E+00  6.342836116076E+00  6.822550491811E+00  7.330496116963E+00
  7.867186313200E+00  8.432957226295E+00  9.027935584324E+00  9.652003976046E+00
  1.030476385382E+01  1.098549657049E+01  1.169312288200E+01  1.205657507689E+01
  1.242616148785E+01  1.280162728805E+01  1.318268733904E+01  1.356902494067E+01
  1.396029061755E+01  1.435610095276E+01  1.475603747997E+01  1.515964564610E+01
  1.556643385745E+01  1.597587262303E+01  1.638739380947E+01  1.680039002293E+01
  1.721421413362E+01  1.762817895979E+01  1.804155712801E+01  1.845358112750E+01
  1.886344357634E+01  1.927029771769E+01  1.967325816440E+01  2.007140191006E+01
  2.046376962442E+01  2.084936725079E+01  2.122716792202E+01  2.159611421091E+01
  2.195512072982E+01  2.230307709244E+01  2.263885124904E+01  2.296129320448E+01
  2.326923912547E+01  2.356151584104E+01  2.383694573673E+01  2.409435203949E+01
  2.433256448632E+01  2.455042536529E+01  2.474679591281E+01  2.492056304613E+01
  2.507064640440E+01  2.519600566610E+01  2.529564810471E+01  2.536863633828E+01
  2.541409622236E+01  2.543122482948E+01  2.541929845184E+01  2.537768055811E+01
  2.530582962889E+01  2.520330679003E+01  2.506978315802E+01  2.490504680667E+01
  2.470900926139E+01  2.448171142367E+01  2.422332882736E+01  2.393417612748E+01
  2.361471072298E+01  2.326553541780E+01  2.288740002784E+01  2.248120184790E+01
  2.204798489981E+01  2.158893789272E+01  2.110539083800E+01  2.059881027467E+01
  2.007079307677E+01  1.952305883112E+01  1.895744079321E+01  1.837587544905E+01
  1.778039073298E+01  1.717309297368E+01  1.655615266432E+01  1.593178917598E+01
  1.530225455692E+01  1.466981658225E+01  1.403674124000E+01  1.340527485840E+01
  1.277762609569E+01  1.215594802728E+01  1.154232057480E+01  1.093873352702E+01
  1.034707040336E+01  9.769093406809E+00  9.206429702978E+00  8.660559247512E+00
  8.132804363060E+00  7.624321241433E+00  7.136093515498E+00  6.668928009994E+00
  6.223452741168E+00  5.800117192848E+00  5.399194852337E+00  5.020787944368E+00
  4.664834256663E+00  4.331115907564E+00  4.019269866204E+00  3.728799999955E+00
  3.459090393697E+00  3.209419661844E+00  2.978975957923E+00  2.766872378476E+00
  2.572162458504E+00  2.393855464582E+00  2.230931208958E+00  2.082354132675E+00
  1.947086437150E+00  1.824100080455E+00  1.712387495314E+00  1.610970928930E+00
  1.518910348466E+00  1.435309898588E+00  1.359322937346E+00  1.290155712249E+00
  1.227069768685E+00  1.169383206642E+00  1.116470918841E+00  1.067763953428E+00
  1.022748147709E+00  9.809621766233E-01  9.419951514708E-01  9.054838921112E-01
  8.711099805265E-01  8.385966865853E-01  8.077058392938E-01  7.782346998290E-01
  7.500128771314E-01  7.228993134869E-01  6.967793044349E-01  6.715613929548E-01
  6.471742334724E-01  6.235638812852E-01  6.006906760862E-01  5.785236837829E-01
  5.570348304978E-01  5.361979130059E-01  5.159892167773E-01  4.963869351966E-01
  4.773710522992E-01  4.589231676431E-01  4.410263375994E-01  4.236649267275E-01
  4.068244689404E-01  3.904915382446E-01  3.746536288022E-01  3.592990440414E-01
  3.444167945195E-01  3.299965042299E-01  3.160283250259E-01  3.025028588278E-01
  2.894110872638E-01  2.767443084008E-01  2.644940801798E-01  2.526521702456E-01
  2.412105117574E-01  2.301611648440E-01  2.194962833382E-01  2.092080864331E-01
  1.992888349093E-01  1.897308115903E-01  1.805263056718E-01  1.716676006269E-01
  1.631469653389E-01  1.549566481636E-01  1.470888736253E-01  1.395358414565E-01
  1.322897277131E-01  1.253426877017E-01  1.186868604761E-01  1.123143746706E-01
  1.062173554513E-01  1.003879323844E-01  9.481824803019E-02  8.950046709032E-02
  8.442678594641E-02  7.958944244418E-02  7.498072579007E-02  7.059298644101E-02
  6.641864588094E-02  6.245020619000E-02  5.868025932477E-02  5.510149603912E-02
  5.170671438629E-02  4.848882775260E-02  4.544087238548E-02  4.255601438605E-02
  3.982755613582E-02  3.724894215503E-02  3.481376437810E-02  3.251576684604E-02
  3.034884981960E-02  2.830707332137E-02  2.638466011894E-02  2.457599816438E-02
  2.287564250760E-02  2.127831670324E-02  1.977891373176E-02  1.837249645674E-02
  1.705429764031E-02  1.581971953921E-02  1.466433310382E-02  1.358387680224E-02
  1.257425509108E-02  1.163153655475E-02  1.075195173401E-02  9.931890665007E-03
  9.167900149204E-03  8.456680774891E-03  7.795083710662E-03  7.180107291311E-03
  6.608893416587E-03  6.078723783286E-03  5.587015971138E-03  5.131319402914E-03
  4.709311199053E-03  4.318791946915E-03  3.957681404442E-03  3.624014157575E-03
  3.315935250225E-03  3.031695804934E-03  2.769648651522E-03  2.528243980165E-03
  2.306025034306E-03  2.101623857740E-03  1.913757109043E-03  1.741221955339E-03
  1.582892056162E-03  1.437713646902E-03  1.304701730121E-03  1.182936381767E-03
  1.071559178122E-03  9.697697481716E-04  8.768224549527E-04  7.920232084079E-04
  7.147264112587E-04  6.443320385087E-04  5.802828503239E-04  5.220617372685E-04
  4.691891961703E-04  4.212209342682E-04  3.777455987482E-04  3.383826283022E-04
  3.027802229519E-04  2.706134280573E-04  2.415823281772E-04  2.154103462679E-04
  1.918426435856E-04  1.706446155955E-04  1.516004791839E-04  1.345119465108E-04
  1.191969809191E-04  1.054886304354E-04  9.323393455310E-05  8.229290011417E-05
  7.253754236716E-05  6.385098745980E-05  5.612663262439E-05  4.926736083456E-05
  4.318480689544E-05  3.779867173658E-05  3.303608214216E-05  2.883099344257E-05
  2.512363265416E-05  2.185997973365E-05  1.899128479326E-05  1.647361923515E-05
  1.426745887592E-05  1.233729723546E-05  1.065128725898E-05  9.180909825589E-06
  7.900667475040E-06  6.787801855376E-06  5.822033460282E-06  4.985322286652E-06
  4.261648100925E-06  3.636809058177E-06  3.098237471112E-06  2.634831577740E-06
  2.236802206914E-06  1.895533290364E-06  1.603455218663E-06  1.353930086781E-06
  1.141147922554E-06  9.600330385929E-07  8.061596947695E-07  6.756763043900E-07
  5.652374623768E-07  4.719431181354E-07  3.932842591134E-07  3.270945132649E-07
  2.715071195680E-07  2.249167552984E-07  1.859457468269E-07  1.534142271937E-07
  1.263138385371E-07  1.037846105730E-07  8.509467767487E-08  6.962252668525E-08
  5.684149538239E-08  4.630626753724E-08  3.764113475327E-08  3.052981781454E-08
  2.470666112360E-08  1.994903304488E-08  1.607078264385E-08  1.291661949733E-08
  1.035729801872E-08  8.285501173207E-09  6.612330629960E-09  5.264321393309E-09
  4.180908853255E-09  3.312285077333E-09  2.617589109454E-09  2.063383122867E-09
  1.622372566948E-09  1.272334021248E-09  9.952193914101E-10  7.764094128291E-10
  6.040932279128E-10  4.687541261540E-10  3.627444335510E-10  2.799350558817E-10
  2.154273617108E-10  1.653169748425E-10  1.265006676630E-10  9.651893850703E-11
  7.342804667766E-11  5.569629389998E-11  4.212020385660E-11  3.175698254156E-11
  2.387025960490E-11  1.788663062910E-11  1.336095640793E-11  9.948740049561E-12
  7.384206779051E-12  5.462963930920E-12  4.028327803418E-12  2.960576678164E-12
  2.168531296058E-12  1.582980464312E-12  1.151564538705E-12  8.348069140438E-13
  6.030464319308E-13  4.340743577213E-13  3.113204484801E-13  2.224654333830E-13
  1.583834553062E-13  1.123389173916E-13  7.937876361103E-14  5.587433746622E-14
  3.917729482973E-14  2.736215487020E-14  1.903441338079E-14  1.318807280082E-14
  9.100282098866E-15  6.253725868368E-15  4.279685119046E-15  2.916433306218E-15
  1.978962376454E-15  1.337044965662E-15  8.994042517161E-16  6.023397057951E-16
  4.015897209445E-16  2.665353676266E-16  1.760899607740E-16  1.157971515685E-16
  7.579148415328E-17  4.937164593954E-17  3.200696688053E-17  2.064884868247E-17
  1.325579666996E-17  8.467364670572E-18  5.381412534576E-18  3.402689031819E-18
  2.140412488067E-18  1.104352310277E-18  0.000000000000E+00  0.000000000000E+00
  0.000000000000E+00  0.000000000000E+00  0.000000000000E+00  0.000000000000E+00
  0.000000000000E+00  0.000000000000E+00  0.000000000000E+00  0.000000000000E+00
  0.000000000000E+00  0.000000000000E+00  0.000000000000E+00  0.000000000000E+00
  0.000000000000E+00  0.000000000000E+00  0.000000000000E+00  0.000000000000E+00
  0.000000000000E+00
</data>
</radfunc>
</valence-charge>
<pseudocore-charge matching-radius="0.684792869282"
 number-of-continuous-derivatives="4">
<annotation model-charge-form="Teter function with specified parameters" />
<radfunc>
<data npts="290">
  1.286535106841E+02  1.286423415322E+02  1.286089546152E+02  1.285532585458E+02
  1.284715447892E+02  1.283673009103E+02  1.282344755420E+02  1.280824231510E+02
  1.279115127738E+02  1.277122794504E+02  1.274878064860E+02  1.272439365675E+02
  1.269493683581E+02  1.266419123942E+02  1.263349660165E+02  1.259816479347E+02
  1.255751058935E+02  1.251900577562E+02  1.247575516893E+02  1.242719268996E+02
  1.237268980035E+02  1.232434476600E+02  1.227136325965E+02  1.221332306043E+02
  1.214976820279E+02  1.208020729267E+02  1.200411197946E+02  1.194241291209E+02
  1.187646684495E+02  1.180600771897E+02  1.173075684952E+02  1.165042298434E+02
  1.156470249598E+02  1.147327973364E+02  1.137582756243E+02  1.127200812117E+02
  1.116147383325E+02  1.104386870867E+02  1.096135812554E+02  1.087543505768E+02
  1.078599010696E+02  1.069291358692E+02  1.059609591679E+02  1.049542806185E+02
  1.039080202349E+02  1.028211138202E+02  1.016925189540E+02  1.005212215720E+02
  9.930624316523E+01  9.804664862965E+01  9.674155479068E+01  9.539013962589E+01
  9.399165220425E+01  9.254542335521E+01  9.105087707431E+01  8.950754266440E+01
  8.791506760205E+01  8.627323110790E+01  8.458195838692E+01  8.284133548980E+01
  8.105162473004E+01  7.921328057232E+01  7.732696588647E+01  7.539356843788E+01
  7.341421745927E+01  7.139030012059E+01  6.932347768345E+01  6.827457499743E+01
  6.721570109426E+01  6.614714752672E+01  6.506922573639E+01  6.398226744615E+01
  6.288662502636E+01  6.178267183146E+01  6.067080250403E+01  5.955143324270E+01
  5.842500203062E+01  5.729196882085E+01  5.615281567484E+01  5.500804685041E+01
  5.385818883517E+01  5.270379032141E+01  5.154542211856E+01  5.038367699893E+01
  4.921916947284E+01  4.805253548888E+01  4.688443205522E+01  4.571553677807E+01
  4.454654731308E+01  4.337818072611E+01  4.221117275939E+01  4.104627699971E+01
  3.988426394532E+01  3.872591996836E+01  3.757204617020E+01  3.642345712738E+01
  3.528097952586E+01  3.414545068255E+01  3.301771695258E+01  3.189863202238E+01
  3.078905508841E+01  2.968984892259E+01  2.860187782606E+01  2.752600547366E+01
  2.646309265246E+01  2.541399489852E+01  2.437956003720E+01  2.336062563306E+01
  2.235801635678E+01  2.137254127747E+01  2.040499108992E+01  1.945613528757E+01
  1.852671929314E+01  1.761746155999E+01  1.672905065873E+01  1.586214236458E+01
  1.501735676216E+01  1.419527538572E+01  1.339643841359E+01  1.262134193698E+01
  1.187043532373E+01  1.114411869893E+01  1.044274056434E+01  9.766595579660E+00
  9.115922528540E+00  8.490902492539E+00  7.891657256101E+00  7.318247965198E+00
  6.770674061686E+00  6.248872514496E+00  5.752717367529E+00  5.282019622614E+00
  4.836527473977E+00  4.415926908449E+00  4.019842683109E+00  3.647839689125E+00
  3.299424707319E+00  2.974048557441E+00  2.671108639256E+00  2.389951859421E+00
  2.129877933750E+00  1.890143049905E+00  1.669963870831E+00  1.468521854451E+00
  1.284967860352E+00  1.118427009411E+00  9.680037577279E-01  8.327871418567E-01
  7.118561482674E-01  6.042851563771E-01  5.091494013737E-01  4.255304005978E-01
  3.525212854951E-01  2.892319802170E-01  2.347941679017E-01  1.883659865911E-01
  1.491363986845E-01  1.163291808363E-01  8.920648528856E-02  6.707192879460E-02
  4.927317148946E-02  3.520395525259E-02  2.430557918697E-02  1.606779869165E-02
  1.002914407806E-02  5.776664594314E-03  2.945113867771E-03  1.215602922387E-03
  3.137568236744E-04  7.420385752101E-06  1.039669733656E-04  4.472719795899E-04
  9.144188026753E-04  1.412209850263E-03  1.873558065549E-03  2.253835540008E-03
  2.527254845541E-03  2.683355740863E-03  2.723664906620E-03  2.658589438038E-03
  2.504596145900E-03  2.281718533797E-03  2.011421950429E-03  1.714845240985E-03
  1.411424673002E-03  1.117893456259E-03  8.476382961461E-04  6.103835929684E-04
  4.121645745167E-04  2.555432214521E-04  1.400156337511E-04  6.255671282604E-05
  1.824780367365E-05  9.352322856425E-07  3.872329694311E-06  2.030426791565E-05
  4.396343610183E-05  6.945264700279E-05  9.250359963898E-05  1.101081095531E-04
  1.205290291615E-04  1.232059367690E-04  1.185770786964E-04  1.078433342708E-04
  9.270192401224E-05  7.507716044780E-05  5.687289692244E-05  3.976678839160E-05
  2.506051933822E-05  1.359337286039E-05  5.719570792478E-06  1.343370415526E-06
  5.621018995974E-10  9.712569941265E-07  3.406996078121E-06  6.455356995067E-06
  9.367267680281E-06  1.157583175517E-05  1.274013052209E-05  1.275257479884E-05
  1.171327887812E-05  9.879001327359E-06  7.596946966026E-06  5.234843355472E-06
  3.118117769777E-06  1.482875448265E-06  4.501067432573E-07  2.268338396853E-08
  0.000000000000E+00  0.000000000000E+00  0.000000000000E+00  0.000000000000E+00
  0.000000000000E+00  0.000000000000E+00  0.000000000000E+00  0.000000000000E+00
  0.000000000000E+00  0.000000000000E+00  0.000000000000E+00  0.000000000000E+00
  0.000000000000E+00  0.000000000000E+00  0.000000000000E+00  0.000000000000E+00
  0.000000000000E+00  0.000000000000E+00  0.000000000000E+00  0.000000000000E+00
  0.000000000000E+00  0.000000000000E+00  0.000000000000E+00  0.000000000000E+00
  0.000000000000E+00  0.000000000000E+00  0.000000000000E+00  0.000000000000E+00
  0.000000000000E+00  0.000000000000E+00  0.000000000000E+00  0.000000000000E+00
  0.000000000000E+00  0.000000000000E+00  0.000000000000E+00  0.000000000000E+00
  0.000000000000E+00  0.000000000000E+00  0.000000000000E+00  0.000000000000E+00
  0.000000000000E+00  0.000000000000E+00  0.000000000000E+00  0.000000000000E+00
  0.000000000000E+00  0.000000000000E+00  0.000000000000E+00  0.000000000000E+00
  0.000000000000E+00  0.000000000000E+00  0.000000000000E+00  0.000000000000E+00
  0.000000000000E+00  0.000000000000E+00  0.000000000000E+00  0.000000000000E+00
  0.000000000000E+00  0.000000000000E+00  0.000000000000E+00  0.000000000000E+00
  0.000000000000E+00  0.000000000000E+00
</data>
</radfunc>
</pseudocore-charge>
<semilocal-potentials set="scalar_relativistic">
<slps n="4" l="s" rc="1.91021963455">
<radfunc>
<data npts="290">
  7.625027288822E+01  7.617934133196E+01  7.596791788497E+01  7.561723523589E+01
  7.510724398672E+01  7.446430185451E+01  7.365727830984E+01  7.274981051678E+01
  7.175007757009E+01  7.061090643301E+01  6.936004976370E+01  6.803874067804E+01
  6.649268855291E+01  6.493446424810E+01  6.343245485210E+01  6.176633910885E+01
  5.992763312539E+01  5.825881790772E+01  5.646330874136E+01  5.454035440193E+01
  5.249103184327E+01  5.076262172231E+01  4.895793282749E+01  4.708056162113E+01
  4.513508961885E+01  4.312708118567E+01  4.106305477767E+01  3.948270270165E+01
  3.787842834052E+01  3.625389659908E+01  3.461297368136E+01  3.295969266080E+01
  3.129821565253E+01  2.963279333366E+01  2.796772265378E+01  2.630730364679E+01
  2.465579629000E+01  2.301737835797E+01  2.193438046491E+01  2.086016929976E+01
  1.979587217644E+01  1.874257596654E+01  1.770132325998E+01  1.667310893404E+01
  1.565887715246E+01  1.465951881038E+01  1.367586943493E+01  1.270870754542E+01
  1.175875347126E+01  1.082666862057E+01  9.913055187357E+00  9.018456280518E+00
  8.143356453944E+00  7.288182613482E+00  6.453305273436E+00  5.639040132898E+00
  4.845649940317E+00  4.073346613320E+00  3.322293579964E+00  2.592608307240E+00
  1.884364982689E+00  1.197597315479E+00  5.323014241094E-01 -1.115612209731E-01
 -7.340608302125E-01 -1.335296332073E+00 -1.915392441708E+00 -2.197558540094E+00
 -2.474496786798E+00 -2.746228757102E+00 -3.012777114750E+00 -3.274165530720E+00
 -3.530418604143E+00 -3.781561785526E+00 -4.027621302452E+00 -4.268624087932E+00
 -4.504597711566E+00 -4.735570313700E+00 -4.961570542759E+00 -5.182627495938E+00
 -5.398770663450E+00 -5.610029876545E+00 -5.816435259491E+00 -6.018017185777E+00
 -6.214806238747E+00 -6.406833176934E+00 -6.594128904358E+00 -6.776724446051E+00
 -6.954650929119E+00 -7.127939569628E+00 -7.296621665621E+00 -7.460728596591E+00
 -7.620291829711E+00 -7.775342933140E+00 -7.925913596704E+00 -8.072035660209E+00
 -8.213741149657E+00 -8.351062321539E+00 -8.484031715340E+00 -8.612682214332E+00
 -8.737047114576E+00 -8.857160202004E+00 -8.973055837243E+00 -9.084769047738E+00
 -9.192335626487E+00 -9.295792236561E+00 -9.395176520304E+00 -9.490527211917E+00
 -9.581884251888E+00 -9.669288901490E+00 -9.752783855386E+00 -9.832413350150E+00
 -9.908223266407E+00 -9.980261222137E+00 -1.004857665467E+01 -1.011322088889E+01
 -1.017424718921E+01 -1.023171079300E+01 -1.028566892350E+01 -1.033618078005E+01
 -1.038330750443E+01 -1.042711212155E+01 -1.046765945387E+01 -1.050501600852E+01
 -1.053924983658E+01 -1.057043036436E+01 -1.059862819597E+01 -1.062391488713E+01
 -1.064636268944E+01 -1.066604426434E+01 -1.068303236540E+01 -1.069739948721E+01
 -1.070921747822E+01 -1.071855711446E+01 -1.072548763020E+01 -1.073007620090E+01
 -1.073238737372E+01 -1.073248244049E+01 -1.073041874915E+01 -1.072624895102E+01
 -1.072002018483E+01 -1.071177320326E+01 -1.070154145535E+01 -1.068935014856E+01
 -1.067521532712E+01 -1.065914301940E+01 -1.064112852389E+01 -1.062115592029E+01
 -1.059919790514E+01 -1.057521605748E+01 -1.054916163323E+01 -1.052097696540E+01
 -1.049059750565E+01 -1.045795448291E+01 -1.042297807847E+01 -1.038560093184E+01