<?xml version="1.0" encoding="UTF-8" ?>
<psml version="1.1" energy_unit="hartree" length_unit="bohr"
 uuid="db88d290-53a0-11e8-489a-3fadfbf6968c"
 xmlns="http://esl.cecam.org/PSML/ns/1.1">
<provenance creator="ONCVPSP-3.3.0+psml-3.3.0-73 (fully-relativistic)"
 date="2018-05-09">
<annotation action="semilocal-pseudopotential-generation"
 action-cont="projectors-generation" />
<input-file name="oncvpsp-input">
<![CDATA[# atsym z nc nv iexc psfile
Ge 32 3 5 -116133 both
# n l f
1 0 2.0
2 0 2.0
2 1 6.0
3 0 2.0
3 1 6.0
3 2 10.0
4 0 2.0
4 1 2.0
# lmax
2
# l rc ep ncon nbas qcut
0 1.2 0.0 4 7 9.6
1 1.3 0.0 4 7 10.5
2 1.5 0.0 4 7 11.0
# lloc lpopt rc5 dvloc0
4 5 1.2 0.0
# l nproj debl
0 2 1.0
1 2 1.5
2 2 3.0
# icmod fcfact rcfact
3 3.0 1.5
# epsh1 epsh2 depsh
-12.0 12.0 0.02
# rlmax drl
6.0 0.01
 0
]]>
</input-file>
</provenance>
<pseudo-atom-spec atomic-label="Ge" atomic-number="32" z-pseudo="22"
 flavor="Hamann&apos;s oncvpsp" relativity="dirac" spin-dft="no"
 core-corrections="yes">
<annotation pseudo-energy="-276.168573828" />
<exchange-correlation>
<annotation oncvpsp-xc-code="-116133" oncvpsp-xc-type="libxc-interface" />
<libxc-info number-of-functionals="2">
<functional name="Perdew, Burke &amp; Ernzerhof SOL (GGA)" type="exchange"
 id="116" />
<functional name="Perdew, Burke &amp; Ernzerhof SOL (GGA)" type="correlation"
 id="133" />
</libxc-info>
</exchange-correlation>
<valence-configuration total-valence-charge="22">
<shell n="3" l="s" occupation="2" />
<shell n="3" l="p" occupation="6" />
<shell n="3" l="d" occupation="10" />
<shell n="4" l="s" occupation="2" />
<shell n="4" l="p" occupation="2" />
</valence-configuration>
</pseudo-atom-spec>
<grid npts="457">
<annotation type="sampled from oncvpsp log grid"
 recipe="r(i:1..N) = r1*exp(a*(i-1)) + r=0; resampled"
 recipe-cont="r1: scale; a: step" scale="0.156250000000E-04"
 step="0.119285708653E-01" delta="0.500000000000E-02" rmax="44.0106814606" />
<grid-data>
  0.000000000000E+00  5.025601837514E-03  1.003824527536E-02  1.505896861607E-02
  2.029121445031E-02  2.545292972101E-02  3.080533800935E-02  3.597266729221E-02
  4.101646976877E-02  4.621291924683E-02  5.145031239924E-02  5.660204419540E-02
  6.226962009944E-02  6.769238310509E-02  7.271481084123E-02  7.810987696307E-02
  8.390522932815E-02  8.906182522060E-02  9.453533200659E-02  1.003452262006E-01
  1.065121812926E-01  1.117175309401E-01  1.171772708801E-01  1.229038334035E-01
  1.289102583787E-01  1.352102229449E-01  1.418180726557E-01  1.469850337403E-01
  1.523402464797E-01  1.578905695834E-01  1.636431116494E-01  1.696052402683E-01
  1.757845914596E-01  1.821890794514E-01  1.888269068167E-01  1.957065749787E-01
  2.028368950993E-01  2.102269993637E-01  2.153027200364E-01  2.205009889089E-01
  2.258247647852E-01  2.312770779061E-01  2.368610316751E-01  2.425798044239E-01
  2.484366512219E-01  2.544349057290E-01  2.605779820929E-01  2.668693768925E-01
  2.733126711282E-01  2.799115322600E-01  2.866697162948E-01  2.935910699251E-01
  3.006795327173E-01  3.079391393553E-01  3.153740219359E-01  3.229884123215E-01
  3.307866445486E-01  3.387731572945E-01  3.469524964043E-01  3.553293174774E-01
  3.639083885186E-01  3.726945926510E-01  3.816929308960E-01  3.909085250195E-01
  4.003466204476E-01  4.100125892517E-01  4.199119332066E-01  4.249508764051E-01
  4.300502869219E-01  4.352108903650E-01  4.404334210494E-01  4.457186221020E-01
  4.510672455672E-01  4.564800525140E-01  4.619578131442E-01  4.675013069019E-01
  4.731113225847E-01  4.787886584557E-01  4.845341223572E-01  4.903485318255E-01
  4.962327142074E-01  5.021875067779E-01  5.082137568592E-01  5.143123219415E-01
  5.204840698048E-01  5.267298786425E-01  5.330506371862E-01  5.394472448324E-01
  5.459206117704E-01  5.524716591117E-01  5.591013190210E-01  5.658105348493E-01
  5.726002612674E-01  5.794714644027E-01  5.864251219755E-01  5.934622234392E-01
  6.005837701205E-01  6.077907753619E-01  6.150842646662E-01  6.224652758422E-01
  6.299348591524E-01  6.374940774622E-01  6.451440063917E-01  6.528857344684E-01
  6.607203632820E-01  6.686490076414E-01  6.766727957331E-01  6.847928692819E-01
  6.930103837133E-01  7.013265083179E-01  7.097424264177E-01  7.182593355347E-01
  7.268784475611E-01  7.356009889318E-01  7.444282007990E-01  7.533613392086E-01
  7.624016752791E-01  7.715504953825E-01  7.808091013271E-01  7.901788105430E-01
  7.996609562695E-01  8.092568877447E-01  8.189679703977E-01  8.287955860424E-01
  8.387411330750E-01  8.488060266719E-01  8.589916989919E-01  8.692995993798E-01
  8.797311945724E-01  8.902879689072E-01  9.009714245341E-01  9.117830816285E-01
  9.227244786081E-01  9.337971723514E-01  9.450027384196E-01  9.563427712806E-01
  9.678188845360E-01  9.794327111504E-01  9.911859036842E-01  1.003080134528E+00
  1.015117096143E+00  1.027298501296E+00  1.039626083312E+00  1.052101596312E+00
  1.064726815468E+00  1.077503537253E+00  1.090433579700E+00  1.103518782657E+00
  1.116761008048E+00  1.130162140145E+00  1.143724085827E+00  1.157448774857E+00
  1.171338160155E+00  1.185394218077E+00  1.199618948694E+00  1.214014376078E+00
  1.228582548591E+00  1.243325539174E+00  1.258245445644E+00  1.273344390992E+00
  1.288624523684E+00  1.304088017968E+00  1.319737074184E+00  1.335573919074E+00
  1.351600806103E+00  1.367820015776E+00  1.384233855965E+00  1.400844662237E+00
  1.417654798184E+00  1.434666655762E+00  1.451882655631E+00  1.469305247499E+00
  1.486936910469E+00  1.504780153394E+00  1.522837515235E+00  1.541111565418E+00
  1.559604904203E+00  1.578320163053E+00  1.597260005010E+00  1.616427125070E+00
  1.635824250571E+00  1.655454141578E+00  1.675319591277E+00  1.695423426372E+00
  1.715768507488E+00  1.736357729578E+00  1.757194022333E+00  1.778280350601E+00
  1.799619714808E+00  1.821215151386E+00  1.843069733203E+00  1.865186570001E+00
  1.887568808841E+00  1.910219634547E+00  1.933142270162E+00  1.956339977404E+00
  1.979816057133E+00  2.003573849818E+00  2.027616736016E+00  2.051948136848E+00
  2.076571514490E+00  2.101490372664E+00  2.126708257136E+00  2.152228756222E+00
  2.178055501297E+00  2.204192167312E+00  2.230642473320E+00  2.257410183000E+00
  2.284499105196E+00  2.311913094458E+00  2.339656051592E+00  2.367731924211E+00
  2.396144707301E+00  2.424898443789E+00  2.453997225114E+00  2.483445191816E+00
  2.513246534117E+00  2.543405492527E+00  2.573926358437E+00  2.604813474738E+00
  2.636071236435E+00  2.667704091273E+00  2.699716540368E+00  2.732113138852E+00
  2.764898496518E+00  2.798077278477E+00  2.831654205818E+00  2.865634056288E+00
  2.900021664964E+00  2.934821924943E+00  2.970039788043E+00  3.005680265499E+00
  3.041748428685E+00  3.078249409829E+00  3.115188402747E+00  3.152570663580E+00
  3.190401511543E+00  3.228686329682E+00  3.267430565638E+00  3.306639732426E+00
  3.346319409215E+00  3.386475242125E+00  3.427112945031E+00  3.468238300371E+00
  3.509857159976E+00  3.551975445895E+00  3.594599151246E+00  3.637734341061E+00
  3.681387153154E+00  3.725563798992E+00  3.770270564579E+00  3.815513811354E+00
  3.861299977091E+00  3.907635576816E+00  3.954527203737E+00  4.001981530182E+00
  4.050005308545E+00  4.098605372247E+00  4.147788636714E+00  4.197562100355E+00
  4.247932845559E+00  4.298908039706E+00  4.350494936182E+00  4.402700875416E+00
  4.455533285921E+00  4.508999685352E+00  4.563107681576E+00  4.617864973755E+00
  4.673279353440E+00  4.729358705682E+00  4.786111010150E+00  4.843544342272E+00
  4.901666874379E+00  4.960486876872E+00  5.020012719394E+00  5.080252872027E+00
  5.141215906491E+00  5.202910497369E+00  5.265345423337E+00  5.328529568417E+00
  5.392471923238E+00  5.457181586317E+00  5.522667765353E+00  5.588939778537E+00
  5.656007055880E+00  5.723879140550E+00  5.792565690237E+00  5.862076478520E+00
  5.932421396262E+00  6.003610453017E+00  6.075653778453E+00  6.148561623795E+00
  6.222344363280E+00  6.297012495640E+00  6.372576645587E+00  6.449047565334E+00
  6.526436136118E+00  6.604753369752E+00  6.684010410189E+00  6.764218535111E+00
  6.845389157533E+00  6.927533827423E+00  7.010664233352E+00  7.094792204152E+00
  7.179929710602E+00  7.266088867129E+00  7.353281933535E+00  7.441521316737E+00
  7.530819572538E+00  7.621189407409E+00  7.712643680297E+00  7.805195404461E+00
  7.898857749315E+00  7.993644042306E+00  8.089567770814E+00  8.186642584064E+00
  8.284882295073E+00  8.384300882613E+00  8.484912493205E+00  8.586731443123E+00
  8.689772220441E+00  8.794049487086E+00  8.899578080931E+00  9.006373017902E+00
  9.114449494117E+00  9.223822888046E+00  9.334508762703E+00  9.446522867855E+00
  9.559881142270E+00  9.674599715977E+00  9.790694912569E+00  9.908183251519E+00
  1.002708145054E+01  1.014740642794E+01  1.026917530508E+01  1.039240540874E+01
  1.051711427365E+01  1.064331964493E+01  1.077103948067E+01  1.090029195444E+01
  1.103109545789E+01  1.116346860338E+01  1.129743022662E+01  1.143299938934E+01
  1.157019538202E+01  1.170903772660E+01  1.184954617932E+01  1.199174073347E+01
  1.213564162227E+01  1.228126932174E+01  1.242864455360E+01  1.257778828824E+01
  1.272872174770E+01  1.288146640868E+01  1.303604400558E+01  1.319247653365E+01
  1.335078625205E+01  1.351099568708E+01  1.367312763532E+01  1.383720516694E+01
  1.400325162895E+01  1.417129064849E+01  1.434134613628E+01  1.451344228991E+01
  1.468760359739E+01  1.486385484056E+01  1.504222109865E+01  1.522272775183E+01
  1.540540048485E+01  1.559026529067E+01  1.577734847416E+01  1.596667665585E+01
  1.615827677572E+01  1.635217609703E+01  1.654840221019E+01  1.674698303671E+01
  1.694794683315E+01  1.715132219515E+01  1.735713806149E+01  1.756542371823E+01
  1.777620880285E+01  1.798952330849E+01  1.820539758819E+01  1.842386235925E+01
  1.864494870756E+01  1.886868809205E+01  1.909511234915E+01  1.932425369734E+01
  1.955614474171E+01  1.979081847861E+01  2.002830830035E+01  2.026864799996E+01
  2.051187177596E+01  2.075801423727E+01  2.100711040812E+01  2.125919573301E+01
  2.151430608181E+01  2.177247775479E+01  2.203374748785E+01  2.229815245770E+01
  2.256573028719E+01  2.283651905064E+01  2.311055727925E+01  2.338788396660E+01
  2.366853857420E+01  2.395256103709E+01  2.423999176953E+01  2.453087167077E+01
  2.482524213082E+01  2.512314503639E+01  2.542462277682E+01  2.572971825015E+01
  2.603847486915E+01  2.635093656758E+01  2.666714780639E+01  2.698715358007E+01
  2.731099942303E+01  2.763873141610E+01  2.797039619310E+01  2.830604094741E+01
  2.864571343878E+01  2.898946200005E+01  2.933733554405E+01  2.968938357058E+01
  3.004565617342E+01  3.040620404750E+01  3.077107849607E+01  3.114033143803E+01
  3.151401541528E+01  3.189218360027E+01  3.227488980347E+01  3.266218848111E+01
  3.305413474289E+01  3.345078435980E+01  3.385219377212E+01  3.425842009738E+01
  3.466952113855E+01  3.508555539221E+01  3.550658205692E+01  3.593266104160E+01
  3.636385297410E+01  3.680021920979E+01  3.724182184031E+01  3.768872370239E+01
  3.814098838682E+01  3.859868024746E+01  3.906186441043E+01  3.953060678336E+01
  4.000497406476E+01  4.048503375354E+01  4.097085415858E+01  4.146250440848E+01
  4.196005446138E+01  4.246357511492E+01  4.297313801630E+01  4.348881567249E+01
  4.401068146056E+01
</grid-data>
</grid>
<valence-charge total-charge="22" is-unscreening-charge="yes"
 rescaled-to-z-pseudo="no">
<radfunc>
<data npts="457">
  3.532868204741E+01  3.534355799438E+01  3.538802144862E+01  3.546218298452E+01
  3.557095992780E+01  3.570967990157E+01  3.588635379266E+01  3.608849050790E+01
  3.631555309060E+01  3.658004943608E+01  3.687779835854E+01  3.720096490776E+01
  3.759087444993E+01  3.799731856536E+01  3.840254299924E+01  3.886829564054E+01
  3.940327225214E+01  3.990901614471E+01  4.047596409549E+01  4.111107799354E+01
  4.182198102577E+01  4.245083016688E+01  4.313805809302E+01  4.388851522746E+01
  4.470732017373E+01  4.559983888096E+01  4.657165138375E+01  4.735599892759E+01
  4.819064194017E+01  4.907805319348E+01  5.002068858876E+01  5.102095462396E+01
  5.208116885372E+01  5.320351225786E+01  5.438997232388E+01  5.564227554422E+01
  5.696180793705E+01  5.834952213109E+01  5.931277277037E+01  6.030648613739E+01
  6.133047603958E+01  6.238438696564E+01  6.346767247748E+01  6.457957186217E+01
  6.571908501853E+01  6.688494557872E+01  6.807559229742E+01  6.928913878108E+01
  7.052334167769E+01  7.177556750576E+01  7.304275836899E+01  7.432139688332E+01
  7.560747073504E+01  7.689643739380E+01  7.818318962291E+01  7.946202256128E+01
  8.072660329618E+01  8.196994400226E+01  8.318437988844E+01  8.436155336677E+01
  8.549240603165E+01  8.656718020885E+01  8.757543199280E+01  8.850605782924E+01
  8.934733680631E+01  9.008699087691E+01  9.071226523316E+01  9.097791855246E+01
  9.121003097163E+01  9.140692374255E+01  9.156691200671E+01  9.168831019977E+01
  9.176943788796E+01  9.180862603999E+01  9.180422373522E+01  9.175460530517E+01
  9.165817790207E+01  9.151338948346E+01  9.131873719780E+01  9.107277615071E+01
  9.077412852636E+01  9.042149303275E+01  9.001365463365E+01  8.954949452349E+01
  8.902800029522E+01  8.844827624396E+01  8.780955374259E+01  8.711120161821E+01
  8.635273645155E+01  8.553383271423E+01  8.465433265218E+01  8.371425581720E+01
  8.271380814246E+01  8.165339045251E+01  8.053360629387E+01  7.935526896831E+01
  7.811940764858E+01  7.682727245471E+01  7.548033836935E+01  7.408030787180E+01
  7.262911217436E+01  7.112891094921E+01  6.958209044196E+01  6.799125987707E+01
  6.635924607236E+01  6.468908619355E+01  6.298401859660E+01  6.124747172382E+01
  5.948305104109E+01  5.769452402639E+01  5.588580324487E+01  5.406092757253E+01
  5.222404165870E+01  5.037937374634E+01  4.853121199941E+01  4.668387951587E+01
  4.484170823416E+01  4.300901196957E+01  4.119005884241E+01  3.938904338463E+01
  3.761005863139E+01  3.585706852111E+01  3.413388093980E+01  3.244412175171E+01
  3.079121016002E+01  2.917833573553E+01  2.760843743948E+01  2.608418494790E+01
  2.460796255874E+01  2.318185593083E+01  2.180764186427E+01  2.048678128699E+01
  1.922041556175E+01  1.800936617369E+01  1.685413780059E+01  1.575492470896E+01
  1.471162035921E+01  1.372383004514E+01  1.279088633710E+01  1.191186704776E+01
  1.108561539399E+01  1.031076199148E+01  9.585748289630E+00  8.908851035371E+00
  8.278207345816E+00  7.691839971466E+00  7.147682344232E+00  6.643603026987E+00
  6.177429213170E+00  5.746968964742E+00  5.350031923118E+00  4.984448278734E+00
  4.648085838787E+00  4.338865087348E+00  4.054772185593E+00  3.793869910381E+00
  3.554306717777E+00  3.334324350344E+00  3.132263651723E+00  2.946567445166E+00
  2.775781993332E+00  2.618556966188E+00  2.473643820498E+00  2.339891634390E+00
  2.216241760714E+00  2.101725851799E+00  1.995463196074E+00  1.896657569034E+00
  1.804593640801E+00  1.718633000647E+00  1.638209853314E+00  1.562826431000E+00
  1.492048159041E+00  1.425498610011E+00  1.362852458959E+00  1.303821374074E+00
  1.248137961829E+00  1.195552559783E+00  1.145834484540E+00  1.098769967111E+00
  1.054161356386E+00  1.011826161904E+00  9.715961416135E-01  9.333164193503E-01
  8.968446329128E-01  8.620501137703E-01  8.288130991995E-01  7.970239774336E-01
  7.665825662054E-01  7.373974248714E-01  7.093852001156E-01  6.824700050515E-01
  6.565828313821E-01  6.316609941262E-01  6.076476082785E-01  5.844910966759E-01
  5.621447282219E-01  5.405661855501E-01  5.197171611354E-01  4.995629808153E-01
  4.800722536385E-01  4.612165469369E-01  4.429700854951E-01  4.253094736918E-01
  4.082134394798E-01  3.916625990889E-01  3.756392413414E-01  3.601271304942E-01
  3.451113265423E-01  3.305780219439E-01  3.165143937570E-01  3.029084702085E-01
  2.897490107481E-01  2.770253986738E-01  2.647275454495E-01  2.528458058734E-01
  2.413709032856E-01  2.302938640455E-01  2.196059605410E-01  2.092986620271E-01
  1.993635926299E-01  1.897924958847E-01  1.805772051967E-01  1.717096196895E-01
  1.631816848806E-01  1.549853776976E-01  1.471126953646E-01  1.395556477192E-01
  1.323062525510E-01  1.253565335821E-01  1.186985207332E-01  1.123242523515E-01
  1.062257790954E-01  1.003951692021E-01  9.482451488115E-02  8.950593960443E-02
  8.443160608249E-02  7.959372473663E-02  7.498456249755E-02  7.059645177841E-02
  6.642179948804E-02  6.245309596660E-02  5.868292374111E-02  5.510396601328E-02
  5.170901480512E-02  4.849097870001E-02  4.544289013129E-02  4.255791217966E-02
  3.982934484083E-02  3.725063075514E-02  3.481536037888E-02  3.251727659288E-02
  3.035027874824E-02  2.830842615464E-02  2.638594102053E-02  2.457721085849E-02
  2.287679037158E-02  2.127940283894E-02  1.977994102026E-02  1.837346759996E-02
  1.705521519251E-02  1.582058593067E-02  1.466515065849E-02  1.358464775078E-02
  1.257498158045E-02  1.163222065518E-02  1.075259544400E-02  9.932495914974E-03
  9.168468804045E-03  8.457214635873E-03  7.795584516806E-03  7.180576720460E-03
  6.609333086285E-03  6.079135251562E-03  5.587400737248E-03  5.131678908102E-03
  4.709646827355E-03  4.319105026021E-03  3.957973206633E-03  3.624285900733E-03
  3.316188098928E-03  3.031930871610E-03  2.769866997682E-03  2.528446617689E-03
  2.306212926786E-03  2.101797921860E-03  1.913918216000E-03  1.741370932290E-03
  1.583029687688E-03  1.437840676484E-03  1.304818861622E-03  1.183044280910E-03
  1.071658473962E-03  9.698610345544E-04  8.769062919545E-04  7.921001237550E-04
  7.147969017213E-04  6.443965712666E-04  5.803418643018E-04  5.221156444387E-04
  4.692383828211E-04  4.212657622375E-04  3.777864066200E-04  3.384197325669E-04
  3.028139191297E-04  2.706439917836E-04  2.416100162513E-04  2.154353976651E-04
  1.918652804321E-04  1.706650441074E-04  1.516188905705E-04  1.345285178431E-04
  1.192118759631E-04  1.055020004521E-04  9.324591906498E-05  8.230362763884E-05
  7.254713111910E-05  6.385954602060E-05  5.613426058219E-05  4.927414939325E-05
  4.319083945437E-05  3.780402444133E-05  3.304082440705E-05  2.883518844559E-05
  2.512733780496E-05  2.186324711545E-05  1.899416157917E-05  1.647614807994E-05
  1.426967828369E-05  1.233924190438E-05  1.065298840358E-05  9.182395477690E-06
  7.901962764030E-06  6.788929268801E-06  5.823013085577E-06  4.986172034922E-06
  4.262383913671E-06  3.637445097842E-06  3.098786296344E-06  2.635304304247E-06
  2.237208654757E-06  1.895882118546E-06  1.603754047832E-06  1.354185610849E-06
  1.141366010001E-06  9.602188242055E-07  8.063176625326E-07  6.758103622091E-07
  5.653510092877E-07  4.720391046162E-07  3.933652410849E-07  3.271627003278E-07
  2.715644179930E-07  2.249648062522E-07  1.859859602827E-07  1.534478119438E-07
  1.263418286938E-07  1.038078889134E-07  8.511399615770E-08  6.963852443967E-08
  5.685471444240E-08  4.631716657192E-08  3.765010101926E-08  3.053717753591E-08
  2.471268848427E-08  1.995395796001E-08  1.607479745970E-08  1.291988475294E-08
  1.035994738870E-08  8.287645697301E-09  6.614062323273E-09  5.265716320122E-09
  4.182029737429E-09  3.313183513488E-09  2.618307431151E-09  2.063955976873E-09
  1.622828236352E-09  1.272695534545E-09  9.955054496980E-10  7.766351628568E-10
  6.042709048591E-10  4.688935866231E-10  3.628535963133E-10  2.800202653101E-10
  2.154936866279E-10  1.653684535574E-10  1.265405083100E-10  9.654968236438E-11
  7.345170091783E-11  5.571443917253E-11  4.213408121513E-11  3.176756346823E-11
  2.387830224691E-11  1.789272482279E-11  1.336555961365E-11  9.952205941760E-12
  7.386807920439E-12  5.464909696877E-12  4.029778505545E-12  2.961654656305E-12
  2.169329600516E-12  1.583569628934E-12  1.151997846658E-12  8.351244776427E-13
  6.032783426181E-13  4.342431095585E-13  3.114427960734E-13  2.225538110983E-13
  1.584470574180E-13  1.123845171457E-13  7.941133199406E-14  5.589750890056E-14
  3.919371632552E-14  2.737374679041E-14  1.904256343492E-14  1.319377979389E-14
  9.104262024838E-15  6.256489895107E-15  4.281596677687E-15  2.917749710942E-15
  1.979865039534E-15  1.337661240052E-15  8.998231535281E-16  6.026231824139E-16
  4.017806913491E-16  2.666634340736E-16  1.761754480507E-16  1.158539505430E-16
  7.582904437527E-17  4.939636545069E-17  3.202315702617E-17  2.065940069937E-17
  1.326264001288E-17  8.471780608567E-18  5.384247661807E-18  3.404499910348E-18
  2.141563140819E-18  1.104795076418E-18  0.000000000000E+00  0.000000000000E+00
  0.000000000000E+00  0.000000000000E+00  0.000000000000E+00  0.000000000000E+00
  0.000000000000E+00  0.000000000000E+00  0.000000000000E+00  0.000000000000E+00
  0.000000000000E+00  0.000000000000E+00  0.000000000000E+00  0.000000000000E+00
  0.000000000000E+00  0.000000000000E+00  0.000000000000E+00  0.000000000000E+00
  0.000000000000E+00
</data>
</radfunc>
</valence-charge>
<pseudocore-charge matching-radius="0.326864273269"
 number-of-continuous-derivatives="4">
<annotation model-charge-form="Teter function with specified parameters" />
<radfunc>
<data npts="290">
  2.512258180287E+02  2.511424364596E+02  2.508933057102E+02  2.504780861260E+02
  2.498697625706E+02  2.490951961110E+02  2.481106676608E+02  2.469869321988E+02
  2.457280353980E+02  2.442661271221E+02  2.426262386636E+02  2.408532941598E+02
  2.387237465148E+02  2.365149594362E+02  2.343239785883E+02  2.318194305030E+02
  2.289605885924E+02  2.262754807590E+02  2.232855084002E+02  2.199610402764E+02
  2.162708977882E+02  2.130337460219E+02  2.095248473236E+02  2.057270887041E+02
  2.016234796240E+02  1.971974629057E+02  1.924332940084E+02  1.886294840473E+02
  1.846218151038E+02  1.804055340632E+02  1.759767652825E+02  1.713326890510E+02
  1.664717360639E+02  1.613937970346E+02  1.561004458653E+02  1.505951739484E+02
  1.448836321510E+02  1.389738758422E+02  1.349290880287E+02  1.308047746016E+02
  1.266054056098E+02  1.223360748422E+02  1.180025230745E+02  1.136111575358E+02
  1.091690667689E+02  1.046840299937E+02  1.001645200333E+02  9.561969881629E+01
  9.105940444228E+01  8.649412878822E+01  8.193498464722E+01  7.739366143487E+01
  7.288236857499E+01  6.841376579290E+01  6.400087970530E+01  5.965700630603E+01
  5.539559921126E+01  5.123014384842E+01  4.717401815248E+01  4.324034077003E+01
  3.944180826305E+01  3.579052334283E+01  3.229781674026E+01  2.897406591633E+01
  2.582851441477E+01  2.286909623357E+01  2.010227011075E+01  1.879265660158E+01
  1.753286904758E+01  1.632323626986E+01  1.516397068846E+01  1.405516581587E+01
  1.299679429797E+01  1.198870654326E+01  1.103062997851E+01  1.012216896602E+01
  9.262805413687E+00  8.451900104569E+00  7.688694767786E+00  6.972314906374E+00
  6.301773391567E+00  5.675974825702E+00  5.093720668434E+00  4.553715112606E+00
  4.054571687623E+00  3.594820559114E+00  3.172916484433E+00  2.787247374184E+00
  2.436143400550E+00  2.117886583999E+00  1.830720781019E+00  1.572861987131E+00
  1.342508861670E+00  1.137853374001E+00  9.570914650123E-01  7.984336132026E-01
  6.601151916034E-01  5.404065002973E-01  4.376223596113E-01  3.501311512915E-01
  2.763631991996E-01  2.148183874032E-01  1.640729219611E-01  1.227851532360E-01
  8.970038810282E-02  6.365463585214E-02  4.357724771426E-02  2.849242750329E-02
  1.751960959914E-02  9.872719977834E-03  4.858355852833E-03  1.872939240590E-03
  3.989189147000E-04  1.132474492694E-07  3.163028278006E-04  1.057195973947E-03
  1.995901836389E-03  2.962054271448E-03  3.834734680061E-03  4.535343264770E-03
  5.020565477597E-03  5.275573753768E-03  5.307594028090E-03  5.139952233501E-03
  4.806698354265E-03  4.347885164114E-03  3.805556171741E-03  3.220473289989E-03
  2.629590201237E-03  2.064253231355E-03  1.549088712689E-03  1.101515236966E-03
  7.318017293677E-04  4.435786593916E-04  2.347005274641E-04  9.835341454113E-05
  2.430200904386E-05  1.760321648283E-07  1.270600792875E-05  4.883225356671E-05
  9.662795413547E-05  1.459961997345E-04  1.891207394441E-04  2.206697173113E-04
  2.377695949439E-04  2.397817277066E-04  2.279257269787E-04  2.048011474627E-04
  1.738618401636E-04  1.388955144427E-04  1.035550233678E-04  7.097833168408E-05
  4.352203818110E-05  2.261990254335E-05  8.764370077282E-06  1.596875887195E-06
  8.287983774767E-08  2.741013121871E-06  7.892932219732E-06  1.390158973105E-05
  1.937032755367E-05  2.328276111967E-05  2.507281935335E-05  2.462430057899E-05
  2.220861850700E-05  1.837687762694E-05  1.382713458672E-05  9.269163013452E-06
  5.307199245774E-06  2.356434354596E-06  6.022755789792E-07  3.758342848327E-09
  0.000000000000E+00  0.000000000000E+00  0.000000000000E+00  0.000000000000E+00
  0.000000000000E+00  0.000000000000E+00  0.000000000000E+00  0.000000000000E+00
  0.000000000000E+00  0.000000000000E+00  0.000000000000E+00  0.000000000000E+00
  0.000000000000E+00  0.000000000000E+00  0.000000000000E+00  0.000000000000E+00
  0.000000000000E+00  0.000000000000E+00  0.000000000000E+00  0.000000000000E+00
  0.000000000000E+00  0.000000000000E+00  0.000000000000E+00  0.000000000000E+00
  0.000000000000E+00  0.000000000000E+00  0.000000000000E+00  0.000000000000E+00
  0.000000000000E+00  0.000000000000E+00  0.000000000000E+00  0.000000000000E+00
  0.000000000000E+00  0.000000000000E+00  0.000000000000E+00  0.000000000000E+00
  0.000000000000E+00  0.000000000000E+00  0.000000000000E+00  0.000000000000E+00
  0.000000000000E+00  0.000000000000E+00  0.000000000000E+00  0.000000000000E+00
  0.000000000000E+00  0.000000000000E+00  0.000000000000E+00  0.000000000000E+00
  0.000000000000E+00  0.000000000000E+00  0.000000000000E+00  0.000000000000E+00
  0.000000000000E+00  0.000000000000E+00  0.000000000000E+00  0.000000000000E+00
  0.000000000000E+00  0.000000000000E+00  0.000000000000E+00  0.000000000000E+00
  0.000000000000E+00  0.000000000000E+00  0.000000000000E+00  0.000000000000E+00
  0.000000000000E+00  0.000000000000E+00  0.000000000000E+00  0.000000000000E+00
  0.000000000000E+00  0.000000000000E+00  0.000000000000E+00  0.000000000000E+00
  0.000000000000E+00  0.000000000000E+00  0.000000000000E+00  0.000000000000E+00
  0.000000000000E+00  0.000000000000E+00  0.000000000000E+00  0.000000000000E+00
  0.000000000000E+00  0.000000000000E+00  0.000000000000E+00  0.000000000000E+00
  0.000000000000E+00  0.000000000000E+00  0.000000000000E+00  0.000000000000E+00
  0.000000000000E+00  0.000000000000E+00  0.000000000000E+00  0.000000000000E+00
  0.000000000000E+00  0.000000000000E+00  0.000000000000E+00  0.000000000000E+00
  0.000000000000E+00  0.000000000000E+00  0.000000000000E+00  0.000000000000E+00
  0.000000000000E+00  0.000000000000E+00  0.000000000000E+00  0.000000000000E+00
  0.000000000000E+00  0.000000000000E+00  0.000000000000E+00  0.000000000000E+00
  0.000000000000E+00  0.000000000000E+00  0.000000000000E+00  0.000000000000E+00
  0.000000000000E+00  0.000000000000E+00  0.000000000000E+00  0.000000000000E+00
  0.000000000000E+00  0.000000000000E+00
</data>
</radfunc>
</pseudocore-charge>
<semilocal-potentials set="scalar_relativistic">
<slps n="3" l="s" rc="1.21401437608">
<radfunc>
<data npts="290">
 -3.935327573862E+01 -3.935315204710E+01 -3.935278220886E+01 -3.935216502181E+01
 -3.935125900539E+01 -3.935010223082E+01 -3.934862662694E+01 -3.934693493082E+01
 -3.934502995396E+01 -3.934280420498E+01 -3.934028929276E+01 -3.933754757506E+01
 -3.933422138972E+01 -3.933073111377E+01 -3.932722594277E+01 -3.932316339290E+01
 -3.931844880228E+01 -3.931394067284E+01 -3.930882332693E+01 -3.930300483421E+01
 -3.929637611693E+01 -3.929040303523E+01 -3.928374983225E+01 -3.927632486334E+01
 -3.926802088706E+01 -3.925871187472E+01 -3.924824912846E+01 -3.923954019043E+01
 -3.922999770675E+01 -3.921952343539E+01 -3.920800525433E+01 -3.919531504989E+01
 -3.918130629532E+01 -3.916581128103E+01 -3.914863795446E+01 -3.912956632640E+01
 -3.910834439973E+01 -3.908468357915E+01 -3.906739351461E+01 -3.904876431191E+01
 -3.902867644653E+01 -3.900699934836E+01 -3.898359049240E+01 -3.895829445193E+01
 -3.893094192508E+01 -3.890134875041E+01 -3.886931493338E+01 -3.883462371314E+01
 -3.879704070798E+01 -3.875631318816E+01 -3.871216953515E+01 -3.866431895662E+01
 -3.861245153394E+01 -3.855623868032E+01 -3.849533407999E+01 -3.842937515603E+01
 -3.835798507265E+01 -3.828077521323E+01 -3.819734799069E+01 -3.810729974886E+01
 -3.801022342321E+01 -3.790571057383E+01 -3.779335241747E+01 -3.767273959627E+01
 -3.754346063403E+01 -3.740509931351E+01 -3.725723149181E+01 -3.717959716815E+01
 -3.709942206112E+01 -3.701664971251E+01 -3.693122278448E+01 -3.684308307667E+01
 -3.675217157102E+01 -3.665842850330E+01 -3.656179345929E+01 -3.646220549328E+01
 -3.635960326608E+01 -3.625392520048E+01 -3.614510965214E+01 -3.603309509514E+01
 -3.591782032189E+01 -3.579922465789E+01 -3.567724819255E+01 -3.555183202707E+01
 -3.542291854039E+01 -3.529045167332E+01 -3.515437722988E+01 -3.501464319327E+01
 -3.487120005224E+01 -3.472400113153E+01 -3.457300291864E+01 -3.441816537761E+01
 -3.425945223962E+01 -3.409683126005E+01 -3.393027443243E+01 -3.375975815078E+01
 -3.358526331441E+01 -3.340677537193E+01 -3.322428430426E+01 -3.303778455028E+01
 -3.284727488156E+01 -3.265275823556E+01 -3.245424151900E+01 -3.225173539411E+01
 -3.204525406101E+01 -3.183481504895E+01 -3.162043902771E+01 -3.140214964864E+01
 -3.117997342220E+01 -3.095393963668E+01 -3.072408031979E+01 -3.049043024293E+01
 -3.025302696579E+01 -3.001191091751E+01 -2.976712550994E+01 -2.951871727775E+01
 -2.926673604067E+01 -2.901123508344E+01 -2.875227135004E+01 -2.848990565020E+01
 -2.822420287754E+01 -2.795523224072E+01 -2.768306751104E+01 -2.740778729235E+01
 -2.712947532180E+01 -2.684822081306E+01 -2.656411885741E+01 -2.627727090167E+01
 -2.598778532711E+01 -2.569577815787E+01 -2.540137393360E+01 -2.510470678607E+01
 -2.480592176588E+01 -2.450517647021E+01 -2.420264302745E+01 -2.389851049742E+01
 -2.359298774731E+01 -2.328630686271E+01 -2.297872714940E+01 -2.267053977679E+01
 -2.236207310623E+01 -2.205369874023E+01 -2.174583832189E+01 -2.143897110916E+01
 -2.113364234917E+01 -2.083047248295E+01 -2.053016722402E+01 -2.023352857395E+01
 -1.994146686501E+01 -1.965501395124E+01 -1.937533770273E+01 -1.910375798680E+01