Xe    ONCVPSP-3.3.0  r_core=   1.40310   1.40310   1.40310
54.0000     26.0000      180503    zatom,zion,pspd
8 -116133   2     4   600     0    pspcod,pspxc,lmax,lloc,mmax,r2well
5.99000000  3.00000000  0.00000000    rchrg fchrg qchrg
2     4     3     0    nproj
3     1           extension_switch
4     4     0    nprojso
0                         1.9115125446771D+00  1.1826414354639D+01
1  0.0000000000000D+00  9.1831335591319D-10 -4.4268788634838D-10
2  1.0000000000000D-02 -1.2825768851661D-02  9.7136423109743D-02
3  2.0000000000000D-02 -2.5435099719909D-02  1.9394253532807D-01
4  3.0000000000000D-02 -3.7613231096583D-02  2.9008950257056D-01
5  4.0000000000000D-02 -4.9148736875733D-02  3.8525143414849D-01
6  5.0000000000000D-02 -5.9835150421950D-02  4.7910682903531D-01
7  6.0000000000000D-02 -6.9472536942202D-02  5.7133999193475D-01
8  7.0000000000000D-02 -7.7868998023705D-02  6.6164240961153D-01
9  8.0000000000000D-02 -8.4842093118674D-02  7.4971407838853D-01
10  9.0000000000000D-02 -9.0220163879964D-02  8.3526477425606D-01
11  1.0000000000000D-01 -9.3843548563699D-02  9.1801525767275D-01
12  1.1000000000000D-01 -9.5565675197243D-02  9.9769840585454D-01
13  1.2000000000000D-01 -9.5254023841963D-02  1.0740602661386D+00
14  1.3000000000000D-01 -9.2790950036827D-02  1.1468610248617D+00
15  1.4000000000000D-01 -8.8074363365669D-02  1.2158758870972D+00
16  1.5000000000000D-01 -8.1018257020639D-02  1.2808958635346D+00
17  1.6000000000000D-01 -7.1553086209417D-02  1.3417284617566D+00
18  1.7000000000000D-01 -5.9625995244489D-02  1.3981982801440D+00
19  1.8000000000000D-01 -4.5200895130575D-02  1.4501475036195D+00
20  1.9000000000000D-01 -2.8258395400943D-02  1.4974363014029D+00
21  2.0000000000000D-01 -8.7955958165471D-03  1.5399431278837D+00
22  2.1000000000000D-01  1.3174254694810D-02  1.5775649286098D+00
23  2.2000000000000D-01  3.7622222845707D-02  1.6102172542303D+00
24  2.3000000000000D-01  6.4504269044580D-02  1.6378342860004D+00
25  2.4000000000000D-01  9.3761926892184D-02  1.6603687771559D+00
26  2.5000000000000D-01  1.2532307119818D-01  1.6777919150714D+00
27  2.6000000000000D-01  1.5910276069770D-01  1.6900931096366D+00
28  2.7000000000000D-01  1.9500414097677D-01  1.6972797136942D+00
29  2.8000000000000D-01  2.3291939268494D-01  1.6993766816973D+00
30  2.9000000000000D-01  2.7273070993079D-01  1.6964261729378D+00
31  3.0000000000000D-01  3.1431129382552D-01  1.6884871057867D+00
32  3.1000000000000D-01  3.5752634646126D-01  1.6756346693586D+00
33  3.2000000000000D-01  4.0223405118077D-01  1.6579597988809D+00
34  3.3000000000000D-01  4.4828652580513D-01  1.6355686208003D+00
35  3.4000000000000D-01  4.9553073652437D-01  1.6085818733206D+00
36  3.5000000000000D-01  5.4380936140660D-01  1.5771343076252D+00
37  3.6000000000000D-01  5.9296159392475D-01  1.5413740745154D+00
38  3.7000000000000D-01  6.4282387851261D-01  1.5014621005991D+00
39  3.8000000000000D-01  6.9323057191833D-01  1.4575714575062D+00
40  3.9000000000000D-01  7.4401452599289D-01  1.4098867268953D+00
41  4.0000000000000D-01  7.9500758950377D-01  1.3586033632760D+00
42  4.1000000000000D-01  8.4604102856377D-01  1.3039270559064D+00
43  4.2000000000000D-01  8.9694586727894D-01  1.2460730902585D+00
44  4.3000000000000D-01  9.4755315220950D-01  1.1852657087920D+00
45  4.4000000000000D-01  9.9769414616846D-01  1.1217374700487D+00
46  4.5000000000000D-01  1.0472004587165D+00  1.0557286044024D+00
47  4.6000000000000D-01  1.0959041224145D+00  9.8748636417896D-01
48  4.7000000000000D-01  1.1436376254302D+00  9.1726436531624D-01
49  4.8000000000000D-01  1.1902339124355D+00  8.4532191728355D-01
50  4.9000000000000D-01  1.2355263668392D+00  7.7192333762538D-01
51  5.0000000000000D-01  1.2793487882557D+00  6.9733724725930D-01
52  5.1000000000000D-01  1.3215353796931D+00  6.2183584254182D-01
53  5.2000000000000D-01  1.3619207592250D+00  5.4569414013193D-01
54  5.3000000000000D-01  1.4003400108883D+00  4.6918919083212D-01
55  5.4000000000000D-01  1.4366287892091D+00  3.9259925887468D-01
56  5.5000000000000D-01  1.4706234910979D+00  3.1620296354654D-01
57  5.6000000000000D-01  1.5021615078733D+00  2.4027838060747D-01
58  5.7000000000000D-01  1.5310815688927D+00  1.6510210164521D-01
59  5.8000000000000D-01  1.5572241866728D+00  9.0948250327022D-02
60  5.9000000000000D-01  1.5804322115346D+00  1.8087455427234D-02
61  6.0000000000000D-01  1.6005515016817D+00 -5.3214218461678D-02
62  6.1000000000000D-01  1.6174317122999D+00 -1.2269638052605D-01
63  6.2000000000000D-01  1.6309272047316D+00 -1.9010546045065D-01
64  6.3000000000000D-01  1.6408980741213D+00 -2.5519588786068D-01
65  6.4000000000000D-01  1.6472112911543D+00 -3.1773129884218D-01
66  6.5000000000000D-01  1.6497419506725D+00 -3.7748576264780D-01
67  6.6000000000000D-01  1.6483746171278D+00 -4.3424502047470D-01
68  6.7000000000000D-01  1.6430047540284D+00 -4.8780772701772D-01
69  6.8000000000000D-01  1.6335402218313D+00 -5.3798668439102D-01
70  6.9000000000000D-01  1.6199028261836D+00 -5.8461005699486D-01
71  7.0000000000000D-01  1.6020298960553D+00 -6.2752255500574D-01
72  7.1000000000000D-01  1.5798758691888D+00 -6.6658657340451D-01
73  7.2000000000000D-01  1.5534138604729D+00 -7.0168327286028D-01
74  7.3000000000000D-01  1.5226371873633D+00 -7.3271358836724D-01
75  7.4000000000000D-01  1.4875608253620D+00 -7.5959915130827D-01
76  7.5000000000000D-01  1.4482227658614D+00 -7.8228311060589D-01
77  7.6000000000000D-01  1.4046852483945D+00 -8.0073083883072D-01
78  7.7000000000000D-01  1.3570358395204D+00 -8.1493050957572D-01
79  7.8000000000000D-01  1.3053883312343D+00 -8.2489353307632D-01
80  7.9000000000000D-01  1.2498834329288D+00 -8.3065483796264D-01
81  8.0000000000000D-01  1.1906892325471D+00 -8.3227298816642D-01
82  8.1000000000000D-01  1.1280014046478D+00 -8.2983012536521D-01
83  8.2000000000000D-01  1.0620431456330D+00 -8.2343172891715D-01
84  8.3000000000000D-01  9.9306481934135D-01 -8.1320618700830D-01
85  8.4000000000000D-01  9.2134329955664D-01 -7.9930417467851D-01
86  8.5000000000000D-01  8.4718099967123D-01 -7.8189783649222D-01
87  8.6000000000000D-01  7.7090458374379D-01 -7.6117977384821D-01
88  8.7000000000000D-01  6.9286335743141D-01 -7.3736183925029D-01
89  8.8000000000000D-01  6.1342734170860D-01 -7.1067374225640D-01
90  8.9000000000000D-01  5.3298503683969D-01 -6.8136147425385D-01
91  9.0000000000000D-01  4.5194088868073D-01 -6.4968556163690D-01
92  9.1000000000000D-01  3.7071247397892D-01 -6.1591915935426D-01
93  9.2000000000000D-01  2.8972742584153D-01 -5.8034599911053D-01
94  9.3000000000000D-01  2.0942012488648D-01 -5.4325820871055D-01
95  9.4000000000000D-01  1.3022818569204D-01 -5.0495402109221D-01
96  9.5000000000000D-01  5.2588771962614D-02 -4.6573539346749D-01
97  9.6000000000000D-01 -2.3065222746448D-02 -4.2590555864865D-01
98  9.7000000000000D-01 -9.6309088912440D-02 -3.8576653204738D-01
99  9.8000000000000D-01 -1.6673026720898D-01 -3.4561659897084D-01
100  9.9000000000000D-01 -2.3393232266604D-01 -3.0574780767590D-01
101  1.0000000000000D+00 -2.9753888120257D-01 -2.6644349415339D-01
102  1.0100000000000D+00 -3.5719748213038D-01 -2.2797586481456D-01
103  1.0200000000000D+00 -4.1258330016500D-01 -1.9060366307475D-01
104  1.0300000000000D+00 -4.6340269104761D-01 -1.5456994532147D-01
105  1.0400000000000D+00 -5.0939651610904D-01 -1.2009999089738D-01
106  1.0500000000000D+00 -5.5034320309494D-01 -8.7399369471560D-02
107  1.0600000000000D+00 -5.8606150302318D-01 -5.6652187689001D-02
108  1.0700000000000D+00 -6.1641290603739D-01 -2.8019535107783D-02
109  1.0800000000000D+00 -6.4130368312258D-01 -1.6381471926901D-03
110  1.0900000000000D+00 -6.6068652467487D-01  2.2380699205294D-02
111  1.1000000000000D+00 -6.7456175210530D-01  4.3952045357568D-02
112  1.1100000000000D+00 -6.8297808315781D-01  6.3017855129195D-02
113  1.1200000000000D+00 -6.8603293790647D-01  7.9547357852184D-02
114  1.1300000000000D+00 -6.8387227791510D-01  9.3537126056181D-02
115  1.1400000000000D+00 -6.7668997740544D-01  1.0501088797483D-01
116  1.1500000000000D+00 -6.6472673071278D-01  1.1401907769123D-01
117  1.1600000000000D+00 -6.4826850814319D-01  1.2063812987463D-01
118  1.1700000000000D+00 -6.2764457529519D-01  1.2496952803503D-01
119  1.1800000000000D+00 -6.0322513264745D-01  1.2713863368685D-01
120  1.1900000000000D+00 -5.7541820292693D-01  1.2729314296185D-01
121  1.2000000000000D+00 -5.4466750132671D-01  1.2560190346471D-01
122  1.2100000000000D+00 -5.1144751364303D-01  1.2225251726516D-01
123  1.2200000000000D+00 -4.7625097275159D-01  1.1744574620669D-01
124  1.2300000000000D+00 -4.3957641890673D-01  1.1138978161101D-01
125  1.2400000000000D+00 -4.0191926244647D-01  1.0429588893916D-01
126  1.2500000000000D+00 -3.6376930913256D-01  9.6376690118684D-02
127  1.2600000000000D+00 -3.2560602031937D-01  8.7843526539843D-02
128  1.2700000000000D+00 -2.8789440659330D-01  7.8904089430059D-02
129  1.2800000000000D+00 -2.5108084975515D-01  6.9760037512113D-02
130  1.2900000000000D+00 -2.1558908423737D-01  6.0604702880503D-02
131  1.3000000000000D+00 -1.8181632076075D-01  5.1620883756815D-02
132  1.3100000000000D+00 -1.5012956060544D-01  4.2978749413197D-02
133  1.3200000000000D+00 -1.2086213923797D-01  3.4833878584987D-02
134  1.3300000000000D+00 -9.4310535511815D-02  2.7325450537495D-02
135  1.3400000000000D+00 -7.0731482317479D-02  2.0574607873227D-02
136  1.3500000000000D+00 -5.0339414640730D-02  1.4683009879746D-02
137  1.3600000000000D+00 -3.3314021808975D-02  9.7343978219824D-03
138  1.3700000000000D+00 -1.9749846420039D-02  5.7795656767414D-03
139  1.3800000000000D+00 -9.6823401477847D-03  2.8430957414721D-03
140  1.3900000000000D+00 -3.4591060574646D-03  1.0333263503258D-03
141  1.4000000000000D+00 -6.8786779791262D-04  2.3012366513071D-04
142  1.4100000000000D+00  4.8535055385264D-05  3.8901936517548D-06
143  1.4200000000000D+00 -5.6382365784728D-07  1.0673272230383D-07
144  1.4300000000000D+00 -3.9230686512920D-05  8.6168538944496D-06
145  1.4400000000000D+00  3.4478133714456D-06 -5.7733030775425D-07
146  1.4500000000000D+00  4.2853277662794D-06 -8.0037047833811D-07
147  1.4600000000000D+00  8.1525449540600D-07 -3.1106075816796D-07
148  1.4700000000000D+00  2.5129563587839D-07 -9.5881974844802D-08
149  1.4800000000000D+00  0.0000000000000D+00  0.0000000000000D+00
150  1.4900000000000D+00  0.0000000000000D+00  0.0000000000000D+00
151  1.5000000000000D+00  0.0000000000000D+00  0.0000000000000D+00
152  1.5100000000000D+00  0.0000000000000D+00  0.0000000000000D+00
153  1.5200000000000D+00  0.0000000000000D+00  0.0000000000000D+00
154  1.5300000000000D+00  0.0000000000000D+00  0.0000000000000D+00
155  1.5400000000000D+00  0.0000000000000D+00  0.0000000000000D+00
156  1.5500000000000D+00  0.0000000000000D+00  0.0000000000000D+00
157  1.5600000000000D+00  0.0000000000000D+00  0.0000000000000D+00
158  1.5700000000000D+00  0.0000000000000D+00  0.0000000000000D+00
159  1.5800000000000D+00  0.0000000000000D+00  0.0000000000000D+00
160  1.5900000000000D+00  0.0000000000000D+00  0.0000000000000D+00
161  1.6000000000000D+00  0.0000000000000D+00  0.0000000000000D+00
162  1.6100000000000D+00  0.0000000000000D+00  0.0000000000000D+00
163  1.6200000000000D+00  0.0000000000000D+00  0.0000000000000D+00
164  1.6300000000000D+00  0.0000000000000D+00  0.0000000000000D+00
165  1.6400000000000D+00  0.0000000000000D+00  0.0000000000000D+00
166  1.6500000000000D+00  0.0000000000000D+00  0.0000000000000D+00
167  1.6600000000000D+00  0.0000000000000D+00  0.0000000000000D+00
168  1.6700000000000D+00  0.0000000000000D+00  0.0000000000000D+00
169  1.6800000000000D+00  0.0000000000000D+00  0.0000000000000D+00
170  1.6900000000000D+00  0.0000000000000D+00  0.0000000000000D+00
171  1.7000000000000D+00  0.0000000000000D+00  0.0000000000000D+00
172  1.7100000000000D+00  0.0000000000000D+00  0.0000000000000D+00
173  1.7200000000000D+00  0.0000000000000D+00  0.0000000000000D+00
174  1.7300000000000D+00  0.0000000000000D+00  0.0000000000000D+00
175  1.7400000000000D+00  0.0000000000000D+00  0.0000000000000D+00
176  1.7500000000000D+00  0.0000000000000D+00  0.0000000000000D+00
177  1.7600000000000D+00  0.0000000000000D+00  0.0000000000000D+00
178  1.7700000000000D+00  0.0000000000000D+00  0.0000000000000D+00
179  1.7800000000000D+00  0.0000000000000D+00  0.0000000000000D+00
180  1.7900000000000D+00  0.0000000000000D+00  0.0000000000000D+00
181  1.8000000000000D+00  0.0000000000000D+00  0.0000000000000D+00
182  1.8100000000000D+00  0.0000000000000D+00  0.0000000000000D+00
183  1.8200000000000D+00  0.0000000000000D+00  0.0000000000000D+00
184  1.8300000000000D+00  0.0000000000000D+00  0.0000000000000D+00
185  1.8400000000000D+00  0.0000000000000D+00  0.0000000000000D+00
186  1.8500000000000D+00  0.0000000000000D+00  0.0000000000000D+00
187  1.8600000000000D+00  0.0000000000000D+00  0.0000000000000D+00
188  1.8700000000000D+00  0.0000000000000D+00  0.0000000000000D+00
189  1.8800000000000D+00  0.0000000000000D+00  0.0000000000000D+00
190  1.8900000000000D+00  0.0000000000000D+00  0.0000000000000D+00
191  1.9000000000000D+00  0.0000000000000D+00  0.0000000000000D+00
192  1.9100000000000D+00  0.0000000000000D+00  0.0000000000000D+00
193  1.9200000000000D+00  0.0000000000000D+00  0.0000000000000D+00
194  1.9300000000000D+00  0.0000000000000D+00  0.0000000000000D+00
195  1.9400000000000D+00  0.0000000000000D+00  0.0000000000000D+00
196  1.9500000000000D+00  0.0000000000000D+00  0.0000000000000D+00
197  1.9600000000000D+00  0.0000000000000D+00  0.0000000000000D+00
198  1.9700000000000D+00  0.0000000000000D+00  0.0000000000000D+00
199  1.9800000000000D+00  0.0000000000000D+00  0.0000000000000D+00
200  1.9900000000000D+00  0.0000000000000D+00  0.0000000000000D+00
201  2.0000000000000D+00  0.0000000000000D+00  0.0000000000000D+00
202  2.0100000000000D+00  0.0000000000000D+00  0.0000000000000D+00
203  2.0200000000000D+00  0.0000000000000D+00  0.0000000000000D+00
204  2.0300000000000D+00  0.0000000000000D+00  0.0000000000000D+00
205  2.0400000000000D+00  0.0000000000000D+00  0.0000000000000D+00
206  2.0500000000000D+00  0.0000000000000D+00  0.0000000000000D+00
207  2.0600000000000D+00  0.0000000000000D+00  0.0000000000000D+00
208  2.0700000000000D+00  0.0000000000000D+00  0.0000000000000D+00
209  2.0800000000000D+00  0.0000000000000D+00  0.0000000000000D+00
210  2.0900000000000D+00  0.0000000000000D+00  0.0000000000000D+00
211  2.1000000000000D+00  0.0000000000000D+00  0.0000000000000D+00
212  2.1100000000000D+00  0.0000000000000D+00  0.0000000000000D+00
213  2.1200000000000D+00  0.0000000000000D+00  0.0000000000000D+00
214  2.1300000000000D+00  0.0000000000000D+00  0.0000000000000D+00
215  2.1400000000000D+00  0.0000000000000D+00  0.0000000000000D+00
216  2.1500000000000D+00  0.0000000000000D+00  0.0000000000000D+00
217  2.1600000000000D+00  0.0000000000000D+00  0.0000000000000D+00
218  2.1700000000000D+00  0.0000000000000D+00  0.0000000000000D+00
219  2.1800000000000D+00  0.0000000000000D+00  0.0000000000000D+00
220  2.1900000000000D+00  0.0000000000000D+00  0.0000000000000D+00
221  2.2000000000000D+00  0.0000000000000D+00  0.0000000000000D+00
222  2.2100000000000D+00  0.0000000000000D+00  0.0000000000000D+00
223  2.2200000000000D+00  0.0000000000000D+00  0.0000000000000D+00
224  2.2300000000000D+00  0.0000000000000D+00  0.0000000000000D+00
225  2.2400000000000D+00  0.0000000000000D+00  0.0000000000000D+00
226  2.2500000000000D+00  0.0000000000000D+00  0.0000000000000D+00
227  2.2600000000000D+00  0.0000000000000D+00  0.0000000000000D+00
228  2.2700000000000D+00  0.0000000000000D+00  0.0000000000000D+00
229  2.2800000000000D+00  0.0000000000000D+00  0.0000000000000D+00
230  2.2900000000000D+00  0.0000000000000D+00  0.0000000000000D+00
231  2.3000000000000D+00  0.0000000000000D+00  0.0000000000000D+00
232  2.3100000000000D+00  0.0000000000000D+00  0.0000000000000D+00
233  2.3200000000000D+00  0.0000000000000D+00  0.0000000000000D+00
234  2.3300000000000D+00  0.0000000000000D+00  0.0000000000000D+00
235  2.3400000000000D+00  0.0000000000000D+00  0.0000000000000D+00
236  2.3500000000000D+00  0.0000000000000D+00  0.0000000000000D+00
237  2.3600000000000D+00  0.0000000000000D+00  0.0000000000000D+00
238  2.3700000000000D+00  0.0000000000000D+00  0.0000000000000D+00
239  2.3800000000000D+00  0.0000000000000D+00  0.0000000000000D+00
240  2.3900000000000D+00  0.0000000000000D+00  0.0000000000000D+00
241  2.4000000000000D+00  0.0000000000000D+00  0.0000000000000D+00
242  2.4100000000000D+00  0.0000000000000D+00  0.0000000000000D+00
243  2.4200000000000D+00  0.0000000000000D+00  0.0000000000000D+00
244  2.4300000000000D+00  0.0000000000000D+00  0.0000000000000D+00
245  2.4400000000000D+00  0.0000000000000D+00  0.0000000000000D+00
246  2.4500000000000D+00  0.0000000000000D+00  0.0000000000000D+00
247  2.4600000000000D+00  0.0000000000000D+00  0.0000000000000D+00
248  2.4700000000000D+00  0.0000000000000D+00  0.0000000000000D+00
249  2.4800000000000D+00  0.0000000000000D+00  0.0000000000000D+00
250  2.4900000000000D+00  0.0000000000000D+00  0.0000000000000D+00
251  2.5000000000000D+00  0.0000000000000D+00  0.0000000000000D+00
252  2.5100000000000D+00  0.0000000000000D+00  0.0000000000000D+00
253  2.5200000000000D+00  0.0000000000000D+00  0.0000000000000D+00
254  2.5300000000000D+00  0.0000000000000D+00  0.0000000000000D+00
255  2.5400000000000D+00  0.0000000000000D+00  0.0000000000000D+00
256  2.5500000000000D+00  0.0000000000000D+00  0.0000000000000D+00
257  2.5600000000000D+00  0.0000000000000D+00  0.0000000000000D+00
258  2.5700000000000D+00  0.0000000000000D+00  0.0000000000000D+00
259  2.5800000000000D+00  0.0000000000000D+00  0.0000000000000D+00
260  2.5900000000000D+00  0.0000000000000D+00  0.0000000000000D+00
261  2.6000000000000D+00  0.0000000000000D+00  0.0000000000000D+00
262  2.6100000000000D+00  0.0000000000000D+00  0.0000000000000D+00
263  2.6200000000000D+00  0.0000000000000D+00  0.0000000000000D+00
264  2.6300000000000D+00  0.0000000000000D+00  0.0000000000000D+00
265  2.6400000000000D+00  0.0000000000000D+00  0.0000000000000D+00
266  2.6500000000000D+00  0.0000000000000D+00  0.0000000000000D+00
267  2.6600000000000D+00  0.0000000000000D+00  0.0000000000000D+00
268  2.6700000000000D+00  0.0000000000000D+00  0.0000000000000D+00
269  2.6800000000000D+00  0.0000000000000D+00  0.0000000000000D+00
270  2.6900000000000D+00  0.0000000000000D+00  0.0000000000000D+00
271  2.7000000000000D+00  0.0000000000000D+00  0.0000000000000D+00
272  2.7100000000000D+00  0.0000000000000D+00  0.0000000000000D+00
273  2.7200000000000D+00  0.0000000000000D+00  0.0000000000000D+00
274  2.7300000000000D+00  0.0000000000000D+00  0.0000000000000D+00
275  2.7400000000000D+00  0.0000000000000D+00  0.0000000000000D+00
276  2.7500000000000D+00  0.0000000000000D+00  0.0000000000000D+00
277  2.7600000000000D+00  0.0000000000000D+00  0.0000000000000D+00
278  2.7700000000000D+00  0.0000000000000D+00  0.0000000000000D+00
279  2.7800000000000D+00  0.0000000000000D+00  0.0000000000000D+00
280  2.7900000000000D+00  0.0000000000000D+00  0.0000000000000D+00
281  2.8000000000000D+00  0.0000000000000D+00  0.0000000000000D+00
282  2.8100000000000D+00  0.0000000000000D+00  0.0000000000000D+00
283  2.8200000000000D+00  0.0000000000000D+00  0.0000000000000D+00
284  2.8300000000000D+00  0.0000000000000D+00  0.0000000000000D+00
285  2.8400000000000D+00  0.0000000000000D+00  0.0000000000000D+00
286  2.8500000000000D+00  0.0000000000000D+00  0.0000000000000D+00
287  2.8600000000000D+00  0.0000000000000D+00  0.0000000000000D+00
288  2.8700000000000D+00  0.0000000000000D+00  0.0000000000000D+00
289  2.8800000000000D+00  0.0000000000000D+00  0.0000000000000D+00
290  2.8900000000000D+00  0.0000000000000D+00  0.0000000000000D+00
291  2.9000000000000D+00  0.0000000000000D+00  0.0000000000000D+00
292  2.9100000000000D+00  0.0000000000000D+00  0.0000000000000D+00
293  2.9200000000000D+00  0.0000000000000D+00  0.0000000000000D+00
294  2.9300000000000D+00  0.0000000000000D+00  0.0000000000000D+00
295  2.9400000000000D+00  0.0000000000000D+00  0.0000000000000D+00
296  2.9500000000000D+00  0.0000000000000D+00  0.0000000000000D+00
297  2.9600000000000D+00  0.0000000000000D+00  0.0000000000000D+00
298  2.9700000000000D+00  0.0000000000000D+00  0.0000000000000D+00
299  2.9800000000000D+00  0.0000000000000D+00  0.0000000000000D+00
300  2.9900000000000D+00  0.0000000000000D+00  0.0000000000000D+00
301  3.0000000000000D+00  0.0000000000000D+00  0.0000000000000D+00
302  3.0100000000000D+00  0.0000000000000D+00  0.0000000000000D+00
303  3.0200000000000D+00  0.0000000000000D+00  0.0000000000000D+00
304  3.0300000000000D+00  0.0000000000000D+00  0.0000000000000D+00
305  3.0400000000000D+00  0.0000000000000D+00  0.0000000000000D+00
306  3.0500000000000D+00  0.0000000000000D+00  0.0000000000000D+00
307  3.0600000000000D+00  0.0000000000000D+00  0.0000000000000D+00
308  3.0700000000000D+00  0.0000000000000D+00  0.0000000000000D+00
309  3.0800000000000D+00  0.0000000000000D+00  0.0000000000000D+00
310  3.0900000000000D+00  0.0000000000000D+00  0.0000000000000D+00
311  3.1000000000000D+00  0.0000000000000D+00  0.0000000000000D+00
312  3.1100000000000D+00  0.0000000000000D+00  0.0000000000000D+00
313  3.1200000000000D+00  0.0000000000000D+00  0.0000000000000D+00
314  3.1300000000000D+00  0.0000000000000D+00  0.0000000000000D+00
315  3.1400000000000D+00  0.0000000000000D+00  0.0000000000000D+00
316  3.1500000000000D+00  0.0000000000000D+00  0.0000000000000D+00
317  3.1600000000000D+00  0.0000000000000D+00  0.0000000000000D+00
318  3.1700000000000D+00  0.0000000000000D+00  0.0000000000000D+00
319  3.1800000000000D+00  0.0000000000000D+00  0.0000000000000D+00
320  3.1900000000000D+00  0.0000000000000D+00  0.0000000000000D+00
321  3.2000000000000D+00  0.0000000000000D+00  0.0000000000000D+00
322  3.2100000000000D+00  0.0000000000000D+00  0.0000000000000D+00
323  3.2200000000000D+00  0.0000000000000D+00  0.0000000000000D+00
324  3.2300000000000D+00  0.0000000000000D+00  0.0000000000000D+00
325  3.2400000000000D+00  0.0000000000000D+00  0.0000000000000D+00
326  3.2500000000000D+00  0.0000000000000D+00  0.0000000000000D+00
327  3.2600000000000D+00  0.0000000000000D+00  0.0000000000000D+00
328  3.2700000000000D+00  0.0000000000000D+00  0.0000000000000D+00
329  3.2800000000000D+00  0.0000000000000D+00  0.0000000000000D+00
330  3.2900000000000D+00  0.0000000000000D+00  0.0000000000000D+00
331  3.3000000000000D+00  0.0000000000000D+00  0.0000000000000D+00
332  3.3100000000000D+00  0.0000000000000D+00  0.0000000000000D+00
333  3.3200000000000D+00  0.0000000000000D+00  0.0000000000000D+00
334  3.3300000000000D+00  0.0000000000000D+00  0.0000000000000D+00
335  3.3400000000000D+00  0.0000000000000D+00  0.0000000000000D+00
336  3.3500000000000D+00  0.0000000000000D+00  0.0000000000000D+00
337  3.3600000000000D+00  0.0000000000000D+00  0.0000000000000D+00
338  3.3700000000000D+00  0.0000000000000D+00  0.0000000000000D+00
339  3.3800000000000D+00  0.0000000000000D+00  0.0000000000000D+00
340  3.3900000000000D+00  0.0000000000000D+00  0.0000000000000D+00
341  3.4000000000000D+00  0.0000000000000D+00  0.0000000000000D+00
342  3.4100000000000D+00  0.0000000000000D+00  0.0000000000000D+00
343  3.4200000000000D+00  0.0000000000000D+00  0.0000000000000D+00
344  3.4300000000000D+00  0.0000000000000D+00  0.0000000000000D+00
345  3.4400000000000D+00  0.0000000000000D+00  0.0000000000000D+00
346  3.4500000000000D+00  0.0000000000000D+00  0.0000000000000D+00
347  3.4600000000000D+00  0.0000000000000D+00  0.0000000000000D+00
348  3.4700000000000D+00  0.0000000000000D+00  0.0000000000000D+00
349  3.4800000000000D+00  0.0000000000000D+00  0.0000000000000D+00
350  3.4900000000000D+00  0.0000000000000D+00  0.0000000000000D+00
351  3.5000000000000D+00  0.0000000000000D+00  0.0000000000000D+00
352  3.5100000000000D+00  0.0000000000000D+00  0.0000000000000D+00
353  3.5200000000000D+00  0.0000000000000D+00  0.0000000000000D+00
354  3.5300000000000D+00  0.0000000000000D+00  0.0000000000000D+00
355  3.5400000000000D+00  0.0000000000000D+00  0.0000000000000D+00
356  3.5500000000000D+00  0.0000000000000D+00  0.0000000000000D+00
357  3.5600000000000D+00  0.0000000000000D+00  0.0000000000000D+00
358  3.5700000000000D+00  0.0000000000000D+00  0.0000000000000D+00
359  3.5800000000000D+00  0.0000000000000D+00  0.0000000000000D+00
360  3.5900000000000D+00  0.0000000000000D+00  0.0000000000000D+00
361  3.6000000000000D+00  0.0000000000000D+00  0.0000000000000D+00
362  3.6100000000000D+00  0.0000000000000D+00  0.0000000000000D+00
363  3.6200000000000D+00  0.0000000000000D+00  0.0000000000000D+00
364  3.6300000000000D+00  0.0000000000000D+00  0.0000000000000D+00
365  3.6400000000000D+00  0.0000000000000D+00  0.0000000000000D+00
366  3.6500000000000D+00  0.0000000000000D+00  0.0000000000000D+00
367  3.6600000000000D+00  0.0000000000000D+00  0.0000000000000D+00
368  3.6700000000000D+00  0.0000000000000D+00  0.0000000000000D+00
369  3.6800000000000D+00  0.0000000000000D+00  0.0000000000000D+00
370  3.6900000000000D+00  0.0000000000000D+00  0.0000000000000D+00
371  3.7000000000000D+00  0.0000000000000D+00  0.0000000000000D+00
372  3.7100000000000D+00  0.0000000000000D+00  0.0000000000000D+00
373  3.7200000000000D+00  0.0000000000000D+00  0.0000000000000D+00
374  3.7300000000000D+00  0.0000000000000D+00  0.0000000000000D+00
375  3.7400000000000D+00  0.0000000000000D+00  0.0000000000000D+00
376  3.7500000000000D+00  0.0000000000000D+00  0.0000000000000D+00
377  3.7600000000000D+00  0.0000000000000D+00  0.0000000000000D+00
378  3.7700000000000D+00  0.0000000000000D+00  0.0000000000000D+00
379  3.7800000000000D+00  0.0000000000000D+00  0.0000000000000D+00
380  3.7900000000000D+00  0.0000000000000D+00  0.0000000000000D+00
381  3.8000000000000D+00  0.0000000000000D+00  0.0000000000000D+00
382  3.8100000000000D+00  0.0000000000000D+00  0.0000000000000D+00
383  3.8200000000000D+00  0.0000000000000D+00  0.0000000000000D+00
384  3.8300000000000D+00  0.0000000000000D+00  0.0000000000000D+00
385  3.8400000000000D+00  0.0000000000000D+00  0.0000000000000D+00
386  3.8500000000000D+00  0.0000000000000D+00  0.0000000000000D+00
387  3.8600000000000D+00  0.0000000000000D+00  0.0000000000000D+00
388  3.8700000000000D+00  0.0000000000000D+00  0.0000000000000D+00
389  3.8800000000000D+00  0.0000000000000D+00  0.0000000000000D+00
390  3.8900000000000D+00  0.0000000000000D+00  0.0000000000000D+00
391  3.9000000000000D+00  0.0000000000000D+00  0.0000000000000D+00
392  3.9100000000000D+00  0.0000000000000D+00  0.0000000000000D+00
393  3.9200000000000D+00  0.0000000000000D+00  0.0000000000000D+00
394  3.9300000000000D+00  0.0000000000000D+00  0.0000000000000D+00
395  3.9400000000000D+00  0.0000000000000D+00  0.0000000000000D+00
396  3.9500000000000D+00  0.0000000000000D+00  0.0000000000000D+00
397  3.9600000000000D+00  0.0000000000000D+00  0.0000000000000D+00
398  3.9700000000000D+00  0.0000000000000D+00  0.0000000000000D+00
399  3.9800000000000D+00  0.0000000000000D+00  0.0000000000000D+00
400  3.9900000000000D+00  0.0000000000000D+00  0.0000000000000D+00
401  4.0000000000000D+00  0.0000000000000D+00  0.0000000000000D+00
402  4.0100000000000D+00  0.0000000000000D+00  0.0000000000000D+00
403  4.0200000000000D+00  0.0000000000000D+00  0.0000000000000D+00
404  4.0300000000000D+00  0.0000000000000D+00  0.0000000000000D+00
405  4.0400000000000D+00  0.0000000000000D+00  0.0000000000000D+00
406  4.0500000000000D+00  0.0000000000000D+00  0.0000000000000D+00
407  4.0600000000000D+00  0.0000000000000D+00  0.0000000000000D+00
408  4.0700000000000D+00  0.0000000000000D+00  0.0000000000000D+00
409  4.0800000000000D+00  0.0000000000000D+00  0.0000000000000D+00
410  4.0900000000000D+00  0.0000000000000D+00  0.0000000000000D+00
411  4.1000000000000D+00  0.0000000000000D+00  0.0000000000000D+00
412  4.1100000000000D+00  0.0000000000000D+00  0.0000000000000D+00
413  4.1200000000000D+00  0.0000000000000D+00  0.0000000000000D+00
414  4.1300000000000D+00  0.0000000000000D+00  0.0000000000000D+00
415  4.1400000000000D+00  0.0000000000000D+00  0.0000000000000D+00
416  4.1500000000000D+00  0.0000000000000D+00  0.0000000000000D+00
417  4.1600000000000D+00  0.0000000000000D+00  0.0000000000000D+00
418  4.1700000000000D+00  0.0000000000000D+00  0.0000000000000D+00
419  4.1800000000000D+00  0.0000000000000D+00  0.0000000000000D+00
420  4.1900000000000D+00  0.0000000000000D+00  0.0000000000000D+00
421  4.2000000000000D+00  0.0000000000000D+00  0.0000000000000D+00
422  4.2100000000000D+00  0.0000000000000D+00  0.0000000000000D+00
423  4.2200000000000D+00  0.0000000000000D+00  0.0000000000000D+00
424  4.2300000000000D+00  0.0000000000000D+00  0.0000000000000D+00
425  4.2400000000000D+00  0.0000000000000D+00  0.0000000000000D+00
426  4.2500000000000D+00  0.0000000000000D+00  0.0000000000000D+00
427  4.2600000000000D+00  0.0000000000000D+00  0.0000000000000D+00
428  4.2700000000000D+00  0.0000000000000D+00  0.0000000000000D+00
429  4.2800000000000D+00  0.0000000000000D+00  0.0000000000000D+00
430  4.2900000000000D+00  0.0000000000000D+00  0.0000000000000D+00
431  4.3000000000000D+00  0.0000000000000D+00  0.0000000000000D+00
432  4.3100000000000D+00  0.0000000000000D+00  0.0000000000000D+00
433  4.3200000000000D+00  0.0000000000000D+00  0.0000000000000D+00
434  4.3300000000000D+00  0.0000000000000D+00  0.0000000000000D+00
435  4.3400000000000D+00  0.0000000000000D+00  0.0000000000000D+00
436  4.3500000000000D+00  0.0000000000000D+00  0.0000000000000D+00
437  4.3600000000000D+00  0.0000000000000D+00  0.0000000000000D+00
438  4.3700000000000D+00  0.0000000000000D+00  0.0000000000000D+00
439  4.3800000000000D+00  0.0000000000000D+00  0.0000000000000D+00
440  4.3900000000000D+00  0.0000000000000D+00  0.0000000000000D+00
441  4.4000000000000D+00  0.0000000000000D+00  0.0000000000000D+00
442  4.4100000000000D+00  0.0000000000000D+00  0.0000000000000D+00
443  4.4200000000000D+00  0.0000000000000D+00  0.0000000000000D+00