<?xml version="1.0" encoding="UTF-8" ?>
<psml version="1.1" energy_unit="hartree" length_unit="bohr"
 uuid="78babe90-539f-11e8-4110-4bb9fb56dec0"
 xmlns="http://esl.cecam.org/PSML/ns/1.1">
<provenance creator="ONCVPSP-3.3.0+psml-3.3.0-73 (fully-relativistic)"
 date="2018-05-09">
<annotation action="semilocal-pseudopotential-generation"
 action-cont="projectors-generation" />
<input-file name="oncvpsp-input">
<![CDATA[# atsym z nc nv iexc psfile
Xe 54 9 2 -116133 upf
# n l f
1 0 2.0
2 0 2.0
2 1 6.0
3 0 2.0
3 1 6.0
3 2 10.0
4 0 2.0
4 1 6.0
4 2 10.0
5 0 2.0
5 1 6.0
# lmax
2
# l rc ep ncon nbas qcut
0 2.0 0.0 4 7 4.0
1 1.8 0.0 4 8 6.0
2 2.2 0.1 4 7 5.5
# lloc lpopt rc5 dvloc0
4 5 1.8 0.0
# l nproj debl
0 2 4.0
1 2 3.0
2 2 4.0
# icmod fcfact
3 8 1.23
# epsh1 epsh2 depsh
-12.0 12.0 0.02
# rlmax drl
6.0 0.01
 0
]]>
</input-file>
</provenance>
<pseudo-atom-spec atomic-label="Xe" atomic-number="54" z-pseudo="8"
 flavor="Hamann&apos;s oncvpsp" relativity="dirac" spin-dft="no"
 core-corrections="yes">
<annotation pseudo-energy="-15.7502247369" />
<exchange-correlation>
<annotation oncvpsp-xc-code="-116133" oncvpsp-xc-type="libxc-interface" />
<libxc-info number-of-functionals="2">
<functional name="Perdew, Burke &amp; Ernzerhof SOL (GGA)" type="exchange"
 id="116" />
<functional name="Perdew, Burke &amp; Ernzerhof SOL (GGA)" type="correlation"
 id="133" />
</libxc-info>
</exchange-correlation>
<valence-configuration total-valence-charge="8">
<shell n="5" l="s" occupation="2" />
<shell n="5" l="p" occupation="6" />
</valence-configuration>
</pseudo-atom-spec>
<grid npts="457">
<annotation type="sampled from oncvpsp log grid"
 recipe="r(i:1..N) = r1*exp(a*(i-1)) + r=0; resampled"
 recipe-cont="r1: scale; a: step" scale="0.925925925926E-05"
 step="0.119285708653E-01" delta="0.500000000000E-02" rmax="44.0815505142" />
<grid-data>
  0.000000000000E+00  5.033694410375E-03  1.005440955457E-02  1.508321761245E-02
  2.032388877205E-02  2.549391579491E-02  3.085494290253E-02  3.603059297763E-02
  4.108251733498E-02  4.628733449663E-02  5.153316126297E-02  5.669318873521E-02
  6.236989096331E-02  6.780138607829E-02  7.283190127614E-02  7.823565490787E-02
  8.404033935153E-02  8.920523875257E-02  9.468755935905E-02  1.005068090479E-01
  1.066836945990E-01  1.118974262617E-01  1.173659578539E-01  1.231017416857E-01
  1.291178386233E-01  1.354279478297E-01  1.420464379586E-01  1.472217192426E-01
  1.525855553172E-01  1.581448159363E-01  1.639066211448E-01  1.698783503969E-01
  1.760676520084E-01  1.824824529513E-01  1.891309690069E-01  1.960217152880E-01
  2.031635171449E-01  2.105655214681E-01  2.156494154184E-01  2.208560549043E-01
  2.261884034939E-01  2.316494963079E-01  2.372424417467E-01  2.429704232603E-01
  2.488367011595E-01  2.548446144723E-01  2.609975828441E-01  2.672991084843E-01
  2.737527781595E-01  2.803622652354E-01  2.871313317672E-01  2.940638306414E-01
  3.011637077684E-01  3.084350043288E-01  3.158818590733E-01  3.235085106788E-01
  3.313193001606E-01  3.393186733437E-01  3.475111833929E-01  3.559014934047E-01
  3.644943790615E-01  3.732947313495E-01  3.823075593432E-01  3.915379930560E-01
  4.009912863604E-01  4.106728199783E-01  4.205881045438E-01  4.256351617983E-01
  4.307427837399E-01  4.359116971448E-01  4.411426375105E-01  4.464363491607E-01
  4.517935853506E-01  4.572151083748E-01  4.627016896753E-01  4.682541099514E-01
  4.738731592708E-01  4.795596371821E-01  4.853143528282E-01  4.911381250622E-01
  4.970317825629E-01  5.029961639537E-01  5.090321179211E-01  5.151405033362E-01
  5.213221893762E-01  5.275780556487E-01  5.339089923165E-01  5.403159002243E-01
  5.467996910270E-01  5.533612873193E-01  5.600016227672E-01  5.667216422404E-01
  5.735223019473E-01  5.804045695706E-01  5.873694244055E-01  5.944178574983E-01
  6.015508717883E-01  6.087694822498E-01  6.160747160368E-01  6.234676126292E-01
  6.309492239808E-01  6.385206146685E-01  6.461828620446E-01  6.539370563891E-01
  6.617843010658E-01  6.697257126786E-01  6.777624212307E-01  6.858955702855E-01
  6.941263171289E-01  7.024558329344E-01  7.108853029296E-01  7.194159265648E-01
  7.280489176836E-01  7.367855046958E-01  7.456269307521E-01  7.545744539212E-01
  7.636293473682E-01  7.727928995366E-01  7.820664143311E-01  7.914512113030E-01
  8.009486258387E-01  8.105600093487E-01  8.202867294609E-01  8.301301702145E-01
  8.400917322570E-01  8.501728330441E-01  8.603749070406E-01  8.706994059251E-01
  8.811477987962E-01  8.917215723818E-01  9.024222312504E-01  9.132512980254E-01
  9.242103136017E-01  9.353008373649E-01  9.465244474133E-01  9.578827407822E-01
  9.693773336716E-01  9.810098616757E-01  9.927819800158E-01  1.004695363776E+00
  1.016751708141E+00  1.028952728639E+00  1.041300161383E+00  1.053795763319E+00
  1.066441312479E+00  1.079238608229E+00  1.092189471528E+00  1.105295745186E+00
  1.118559294128E+00  1.131982005658E+00  1.145565789726E+00  1.159312579202E+00
  1.173224330153E+00  1.187303022115E+00  1.201550658380E+00  1.215969266280E+00
  1.230560897476E+00  1.245327628246E+00  1.260271559784E+00  1.275394818502E+00
  1.290699556324E+00  1.306187951000E+00  1.321862206412E+00  1.337724552889E+00
  1.353777247523E+00  1.370022574494E+00  1.386462845388E+00  1.403100399532E+00
  1.419937604327E+00  1.436976855579E+00  1.454220577846E+00  1.471671224780E+00
  1.489331279477E+00  1.507203254831E+00  1.525289693889E+00  1.543593170215E+00
  1.562116288258E+00  1.580861683717E+00  1.599832023922E+00  1.619030008209E+00
  1.638458368307E+00  1.658119868727E+00  1.678017307152E+00  1.698153514837E+00
  1.718531357016E+00  1.739153733300E+00  1.760023578099E+00  1.781143861036E+00
  1.802517587369E+00  1.824147798417E+00  1.846037571998E+00  1.868190022862E+00
  1.890608303137E+00  1.913295602774E+00  1.936255150008E+00  1.959490211808E+00
  1.983004094349E+00  2.006800143482E+00  2.030881745203E+00  2.055252326146E+00
  2.079915354060E+00  2.104874338308E+00  2.130132830368E+00  2.155694424332E+00
  2.181562757424E+00  2.207741510513E+00  2.234234408640E+00  2.261045221543E+00
  2.288177764202E+00  2.315635897372E+00  2.343423528141E+00  2.371544610478E+00
  2.400003145804E+00  2.428803183554E+00  2.457948821756E+00  2.487444207618E+00
  2.517293538109E+00  2.547501060566E+00  2.578071073293E+00  2.609007926173E+00
  2.640316021287E+00  2.671999813542E+00  2.704063811305E+00  2.736512577040E+00
  2.769350727965E+00  2.802582936700E+00  2.836213931941E+00  2.870248499124E+00
  2.904691481113E+00  2.939547778887E+00  2.974822352233E+00  3.010520220460E+00
  3.046646463106E+00  3.083206220663E+00  3.120204695311E+00  3.157647151655E+00
  3.195538917475E+00  3.233885384484E+00  3.272692009098E+00  3.311964313207E+00
  3.351707884966E+00  3.391928379585E+00  3.432631520140E+00  3.473823098382E+00
  3.515508975563E+00  3.557695083269E+00  3.600387424269E+00  3.643592073360E+00
  3.687315178240E+00  3.731562960379E+00  3.776341715904E+00  3.821657816494E+00
  3.867517710292E+00  3.913927922816E+00  3.960895057890E+00  4.008425798584E+00
  4.056526908167E+00  4.105205231065E+00  4.154467693838E+00  4.204321306164E+00
  4.254773161838E+00  4.305830439780E+00  4.357500405058E+00  4.409790409918E+00
  4.462707894837E+00  4.516260389575E+00  4.570455514250E+00  4.625300980421E+00
  4.680804592186E+00  4.736974247293E+00  4.793817938260E+00  4.851343753519E+00
  4.909559878561E+00  4.968474597104E+00  5.028096292269E+00  5.088433447777E+00
  5.149494649150E+00  5.211288584940E+00  5.273824047959E+00  5.337109936535E+00
  5.401155255773E+00  5.465969118842E+00  5.531560748268E+00  5.597939477248E+00
  5.665114750975E+00  5.733096127986E+00  5.801893281522E+00  5.871516000900E+00
  5.941974192911E+00  6.013277883226E+00  6.085437217825E+00  6.158462464439E+00
  6.232364014012E+00  6.307152382180E+00  6.382838210766E+00  6.459432269296E+00
  6.536945456527E+00  6.615388802005E+00  6.694773467629E+00  6.775110749241E+00
  6.856412078232E+00  6.938689023171E+00  7.021953291449E+00  7.106216730946E+00
  7.191491331717E+00  7.277789227698E+00  7.365122698430E+00  7.453504170812E+00
  7.542946220861E+00  7.633461575512E+00  7.725063114418E+00  7.817763871791E+00
  7.911577038252E+00  8.006515962711E+00  8.102594154264E+00  8.199825284115E+00
  8.298223187524E+00  8.397801865775E+00  8.498575488164E+00  8.600558394022E+00
  8.703765094750E+00  8.808210275887E+00  8.913908799198E+00  9.020875704788E+00
  9.129126213246E+00  9.238675727805E+00  9.349539836538E+00  9.461734314577E+00
  9.575275126352E+00  9.690178427868E+00  9.806460569002E+00  9.924138095830E+00
  1.004322775298E+01  1.016374648602E+01  1.028571144385E+01  1.040913998117E+01
  1.053404966095E+01  1.066045825688E+01  1.078838375596E+01  1.091784436103E+01
  1.104885849337E+01  1.118144479529E+01  1.131562213283E+01  1.145140959842E+01
  1.158882651361E+01  1.172789243177E+01  1.186862714095E+01  1.201105066664E+01
  1.215518327464E+01  1.230104547394E+01  1.244865801962E+01  1.259804191586E+01
  1.274921841885E+01  1.290220903988E+01  1.305703554835E+01  1.321371997493E+01
  1.337228461463E+01  1.353275203001E+01  1.369514505437E+01  1.385948679502E+01
  1.402580063656E+01  1.419411024420E+01  1.436443956713E+01  1.453681284194E+01
  1.471125459604E+01  1.488778965119E+01  1.506644312701E+01  1.524724044453E+01
  1.543020732987E+01  1.561536981782E+01  1.580275425564E+01  1.599238730671E+01
  1.618429595439E+01  1.637850750584E+01  1.657504959591E+01  1.677395019106E+01
  1.697523759335E+01  1.717894044447E+01  1.738508772981E+01  1.759370878256E+01
  1.780483328795E+01  1.801849128741E+01  1.823471318286E+01  1.845352974105E+01
  1.867497209795E+01  1.889907176312E+01  1.912586062428E+01  1.935537095177E+01
  1.958763540319E+01  1.982268702803E+01  2.006055927237E+01  2.030128598363E+01
  2.054490141544E+01  2.079144023242E+01  2.104093751521E+01  2.129342876539E+01
  2.154894991058E+01  2.180753730951E+01  2.206922775722E+01  2.233405849031E+01
  2.260206719219E+01  2.287329199850E+01  2.314777150248E+01  2.342554476051E+01
  2.370665129764E+01  2.399113111321E+01  2.427902468657E+01  2.457037298280E+01
  2.486521745860E+01  2.516360006810E+01  2.546556326892E+01  2.577115002815E+01
  2.608040382848E+01  2.639336867442E+01  2.671008909852E+01  2.703061016770E+01
  2.735497748971E+01  2.768323721959E+01  2.801543606622E+01  2.835162129902E+01
  2.869184075461E+01  2.903614284366E+01  2.938457655779E+01  2.973719147648E+01
  3.009403777420E+01  3.045516622749E+01  3.082062822222E+01  3.119047576088E+01
  3.156476147001E+01  3.194353860765E+01  3.232686107095E+01  3.271478340380E+01
  3.310736080464E+01  3.350464913430E+01  3.390670492391E+01  3.431358538300E+01
  3.472534840759E+01  3.514205258849E+01  3.556375721955E+01  3.599052230618E+01
  3.642240857386E+01  3.685947747674E+01  3.730179120646E+01  3.774941270094E+01
  3.820240565335E+01  3.866083452119E+01  3.912476453545E+01  3.959426170987E+01
  4.006939285039E+01  4.055022556459E+01  4.103682827137E+01  4.152927021063E+01
  4.202762145315E+01  4.253195291059E+01  4.304233634552E+01  4.355884438166E+01
  4.408155051424E+01
</grid-data>
</grid>
<valence-charge total-charge="8" is-unscreening-charge="yes"
 rescaled-to-z-pseudo="no">
<radfunc>
<data npts="457">
  1.059957883842E-02  1.060912604475E-02  1.063768491852E-02  1.068539467490E-02
  1.075554505179E-02  1.084530281929E-02  1.096010220628E-02  1.109211444459E-02
  1.124125915787E-02  1.141613745393E-02  1.161448585779E-02  1.183155857082E-02
  1.209596687344E-02  1.237453002424E-02  1.265527754585E-02  1.298172607490E-02
  1.336172469332E-02  1.372597041025E-02  1.414016990670E-02  1.461165745722E-02
  1.514895890518E-02  1.563280889705E-02  1.617094994857E-02  1.677001031543E-02
  1.743752072879E-02  1.818205114871E-02  1.901336975107E-02  1.970046375897E-02
  2.044789925863E-02  2.126152237999E-02  2.214780710991E-02  2.311392796754E-02
  2.416784124515E-02  2.531837575690E-02  2.657533411820E-02  2.794960565960E-02
  2.945329215846E-02  3.109984764862E-02  3.228424426154E-02  3.354359336929E-02
  3.488309112694E-02  3.630831603006E-02  3.782525699218E-02  3.944034328135E-02
  4.116047640098E-02  4.299306399849E-02  4.494605588188E-02  4.702798222071E-02
  4.924799400212E-02  5.161590580587E-02  5.414224095377E-02  5.683827907886E-02
  5.971610614758E-02  6.278866695431E-02  6.606982009181E-02  6.957439538277E-02
  7.331825373762E-02  7.731834938083E-02  8.159279436273E-02  8.616092524617E-02
  9.104337182607E-02  9.626212770614E-02  1.018406225185E-01  1.078037955289E-01
  1.141781703222E-01  1.209919302041E-01  1.282749938904E-01  1.321023573712E-01
  1.360590909742E-01  1.401494560955E-01  1.443778365614E-01  1.487487408634E-01
  1.532668043466E-01  1.579367913439E-01  1.627635972468E-01  1.677522505011E-01
  1.729079145160E-01  1.782358894729E-01  1.837416140201E-01  1.894306668349E-01
  1.953087680369E-01  2.013817804293E-01  2.076557105470E-01  2.141367094847E-01
  2.208310734759E-01  2.277452441902E-01  2.348858087135E-01  2.422594991696E-01
  2.498731919384E-01  2.577339064205E-01  2.658488032920E-01  2.742251821868E-01
  2.828704787387E-01  2.917922609049E-01  3.009982244883E-01  3.104961877642E-01
  3.202940851101E-01  3.303999595252E-01  3.408219539181E-01  3.515683010275E-01
  3.626473118318E-01  3.740673622891E-01  3.858368782371E-01  3.979643182712E-01
  4.104581544038E-01  4.233268502966E-01  4.365788368442E-01  4.502224848756E-01
  4.642660747283E-01  4.787177624398E-01  4.935855422923E-01  5.088772054393E-01
  5.246002943389E-01  5.407620527165E-01  5.573693707806E-01  5.744287254247E-01
  5.919461151546E-01  6.099269895010E-01  6.283761726974E-01  6.472977814342E-01
  6.666951365383E-01  6.865706684708E-01  7.069258165944E-01  7.277609222262E-01
  7.490751155653E-01  7.708661966765E-01  7.931305108033E-01  8.158628183988E-01
  8.390561603795E-01  8.627017192389E-01  8.867886768014E-01  9.113040695438E-01
  9.362326425701E-01  9.615567034879E-01  9.872559775993E-01  1.013307465985E+00
  1.039685308220E+00  1.066360651615E+00  1.093301529024E+00  1.120472747374E+00
  1.147835789195E+00  1.175348729495E+00  1.202966170386E+00  1.230639195867E+00
  1.258315349168E+00  1.285938634973E+00  1.313449548733E+00  1.340785135122E+00
  1.367879077479E+00  1.394661819823E+00  1.421060722736E+00  1.447000254046E+00
  1.472402214902E+00  1.497186001408E+00  1.521268901578E+00  1.544566426951E+00
  1.566992677788E+00  1.588460740405E+00  1.608883114787E+00  1.628172170374E+00
  1.646240627623E+00  1.663002062765E+00  1.678371433085E+00  1.692265620015E+00
  1.704603987369E+00  1.715308952181E+00  1.724306565779E+00  1.731527102956E+00
  1.736905657305E+00  1.740382741038E+00  1.741904887713E+00  1.741425256392E+00
  1.738904235600E+00  1.734310045187E+00  1.727619333592E+00  1.718817767180E+00
  1.707900607095E+00  1.694873267566E+00  1.679751847695E+00  1.662563626605E+00
  1.643347509411E+00  1.622154409001E+00  1.599047546169E+00  1.574102648503E+00
  1.547408026820E+00  1.519064507126E+00  1.489185196393E+00  1.457895062148E+00
  1.425330309187E+00  1.391636761529E+00  1.356964782237E+00  1.321462257574E+00
  1.285272415918E+00  1.248533836051E+00  1.211379024939E+00  1.173933719668E+00
  1.136316259748E+00  1.098637140170E+00  1.060998925386E+00  1.023497071923E+00
  9.862212202017E-01  9.492553630372E-01  9.126775622279E-01  8.765600638318E-01
  8.409693116074E-01  8.059660109298E-01  7.716052178119E-01  7.379364525220E-01
  7.050038353655E-01  6.728462421932E-01  6.414974772696E-01  6.109864610010E-01
  5.813374305719E-01  5.525701509712E-01  5.247001344681E-01  4.977388665075E-01
  4.716940361349E-01  4.465697691785E-01  4.223668625371E-01  3.990830180483E-01
  3.767130745382E-01  3.552492367824E-01  3.346813002344E-01  3.149968705034E-01
  2.961815766958E-01  2.782192777996E-01  2.610922615448E-01  2.447814350940E-01
  2.292665071765E-01  2.145261612559E-01  2.005382195974E-01  1.872797979424E-01
  1.747274507725E-01  1.628573071415E-01  1.516451971304E-01  1.410667690508E-01
  1.310975975703E-01  1.217132829886E-01  1.128895419345E-01  1.046022897906E-01
  9.682771518565E-02  8.954234691561E-02  8.272311367586E-02  7.634739699513E-02
  7.039307776869E-02  6.483857678600E-02  5.966288964137E-02  5.484561640393E-02
  5.036698640679E-02  4.620787849585E-02  4.234983705663E-02  3.877508411517E-02
  3.546652778657E-02  3.240776732363E-02  2.958309499960E-02  2.697749504297E-02
  2.457663982991E-02  2.236688353067E-02  2.033525340050E-02  1.846943890236E-02
  1.675777884778E-02  1.518924674265E-02  1.375343452624E-02  1.244053489266E-02
  1.124132238510E-02  1.014713345259E-02  9.149845657171E-03  8.241856215843E-03
  7.416060056109E-03  6.665827556750E-03  5.984982136392E-03  5.367777842022E-03
  4.808877077751E-03  4.303328601492E-03  3.846545903731E-03  3.434286068837E-03
  3.062629205472E-03  2.727958518917E-03  2.426941084853E-03  2.156509371365E-03
  1.913843543962E-03  1.696354577321E-03  1.501668187285E-03  1.327609587606E-03
  1.172189067868E-03  1.033588382112E-03  9.101479318144E-04  8.003547220599E-04
  7.028310658855E-04  6.163240088464E-04  5.396954437405E-04  4.719128840514E-04
  4.120408639342E-04  3.592329323684E-04  3.127242093528E-04  2.718244726178E-04
  2.359117441981E-04  2.044263472810E-04  1.768654049325E-04  1.527777535812E-04
  1.317592454351E-04  1.134484153104E-04  9.752248861963E-05  8.369370849230E-05
  7.170596117525E-05  6.133167996687E-05  5.236900899129E-05  4.463920910691E-05
  3.798428917860E-05  3.226484682640E-05  2.735810360209E-05  2.315612034441E-05
  1.956417922802E-05  1.649931975577E-05  1.388901665198E-05  1.166998829835E-05
  9.787125017478E-06  8.192527150984E-06  6.844643503082E-06  5.707501324041E-06
  4.750019593061E-06  3.945397925025E-06  3.270573970310E-06  2.705742700481E-06
  2.233931474550E-06  1.840625259845E-06  1.513436837880E-06  1.241817258412E-06
  1.016802213911E-06  8.307903917222E-07  6.773502223865E-07  5.510517800972E-07
  4.473209054532E-07  3.623129120870E-07  2.928035080367E-07  2.360948106642E-07
  1.899345613819E-07  1.524468543732E-07  1.220728828900E-07  9.752037863717E-08
  7.772057527948E-08  6.179166731361E-08  4.900786153051E-08  3.877323110228E-08
  3.059968301778E-08  2.408843916274E-08  1.891451076411E-08  1.481371611545E-08
  1.157185334278E-08  9.015694278302E-09  7.005513048614E-09  5.428904465498E-09
  4.195683388818E-09  3.233687515388E-09  2.485333087397E-09  1.904796310815E-09
  1.455713282889E-09  1.109308357943E-09  8.428754999469E-10  6.385496069499E-10
  4.823153387199E-10  3.632098934294E-10  2.726836903096E-10  2.040892233289E-10
  1.522736316530E-10  1.132549388228E-10  8.396557702169E-11  6.204985030576E-11
  4.570450013437E-11  3.355360282409E-11  2.455072419140E-11  1.790264340982E-11
  1.301008836996E-11  9.421842862132E-12  6.799328956407E-12  4.889367274223E-12
  3.503299521752E-12  2.501043396875E-12  1.778957782084E-12  1.260640848760E-12
  8.899775391615E-13  6.259058664867E-13  4.384917435641E-13  3.059962503289E-13
  2.126927481012E-13  1.472483723839E-13  1.015286597837E-13  6.971816650295E-14
  4.767612735083E-14  3.246623907234E-14  2.201491461281E-14  1.486393438021E-14
  9.992168875056E-15  6.687628543069E-15  4.456026926731E-15  2.955720503304E-15
  1.951619426640E-15  1.282682394585E-15  8.390949236546E-16  5.463191657193E-16
  3.539975714788E-16  2.282692673404E-16  1.464746343468E-16  9.352321045225E-17
  5.941447482284E-17  3.755385583939E-17  2.361453730649E-17  1.477201926485E-17
  9.191964881992E-18  5.689277489532E-18  3.502337506273E-18  2.144284838467E-18
  1.305574489876E-18  7.904715164714E-19  4.758898235590E-19  2.848603091450E-19
  1.652532823275E-19  9.785925692619E-20  5.760416118934E-20  3.370324402994E-20
  0.000000000000E+00  0.000000000000E+00  0.000000000000E+00  0.000000000000E+00
  0.000000000000E+00  0.000000000000E+00  0.000000000000E+00  0.000000000000E+00
  0.000000000000E+00  0.000000000000E+00  0.000000000000E+00  0.000000000000E+00
  0.000000000000E+00  0.000000000000E+00  0.000000000000E+00  0.000000000000E+00
  0.000000000000E+00  0.000000000000E+00  0.000000000000E+00  0.000000000000E+00
  0.000000000000E+00  0.000000000000E+00  0.000000000000E+00  0.000000000000E+00
  0.000000000000E+00  0.000000000000E+00  0.000000000000E+00  0.000000000000E+00
  0.000000000000E+00  0.000000000000E+00  0.000000000000E+00  0.000000000000E+00
  0.000000000000E+00  0.000000000000E+00  0.000000000000E+00  0.000000000000E+00
  0.000000000000E+00
</data>
</radfunc>
</valence-charge>
<pseudocore-charge matching-radius="1.41993760433"
 number-of-continuous-derivatives="4">
<annotation model-charge-form="Teter function with specified parameters" />
<radfunc>
<data npts="290">
  1.391474137711E+01  1.391437619513E+01  1.391328446675E+01  1.391146283282E+01
  1.390878931301E+01  1.390537703685E+01  1.390102656174E+01  1.389604272128E+01
  1.389043615324E+01  1.388389429294E+01  1.387651569058E+01  1.386848986737E+01
  1.385878213574E+01  1.384863396524E+01  1.383848654173E+01  1.382678613680E+01
  1.381329661442E+01  1.380049394069E+01  1.378608258592E+01  1.376986231467E+01
  1.375160847888E+01  1.373537296166E+01  1.371753251345E+01  1.369793076374E+01
  1.367639658595E+01  1.365274280642E+01  1.362676482212E+01  1.360562237546E+01
  1.358294548713E+01  1.355862551768E+01  1.353254655491E+01  1.350458499222E+01
  1.347460909312E+01  1.344247854321E+01  1.340804399169E+01  1.337114658482E+01
  1.333161749424E+01  1.328927744415E+01  1.325939564076E+01  1.322812108182E+01
  1.319539231621E+01  1.316114552854E+01  1.312531448406E+01  1.308783047635E+01
  1.304862227857E+01  1.300761609871E+01  1.296473553982E+01  1.291990156587E+01
  1.287303247432E+01  1.282404387617E+01  1.277284868489E+01  1.271935711512E+01
  1.266347669264E+01  1.260511227699E+01  1.254416609816E+01  1.248053780923E+01
  1.241412455652E+01  1.234482106930E+01  1.227251977114E+01  1.219711091506E+01
  1.211848274486E+01  1.203652168510E+01  1.195111256243E+01  1.186213886109E+01
  1.176948301541E+01  1.167302674244E+01  1.157265141794E+01  1.152095705093E+01
  1.146823849890E+01  1.141448103416E+01  1.135966999610E+01  1.130379080885E+01
  1.124682899999E+01  1.118877022013E+01  1.112960026347E+01  1.106930508938E+01
  1.100787084496E+01  1.094528388868E+01  1.088153081509E+01  1.081659848060E+01
  1.075047403040E+01  1.068314492651E+01  1.061459897699E+01  1.054482436633E+01
  1.047380968706E+01  1.040154397249E+01  1.032801673078E+01  1.025321798019E+01
  1.017713828553E+01  1.009976879597E+01  1.002110128397E+01  9.941128185554E+00
  9.859842641768E+00  9.777238541405E+00  9.693310564920E+00  9.608054229557E+00
  9.521465935640E+00  9.433543014013E+00  9.344283774578E+00  9.253687555900E+00
  9.161754775823E+00  9.068486983038E+00  8.973886909541E+00  8.877958523907E+00
  8.780707085294E+00  8.682139198088E+00  8.582262867083E+00  8.481087553092E+00
  8.378624228854E+00  8.274885435111E+00  8.169885336705E+00  8.063639778539E+00
  7.956166341222E+00  7.847484396231E+00  7.737615160365E+00  7.626581749309E+00
  7.514409230054E+00  7.401124671950E+00  7.286757196128E+00  7.171338023020E+00
  7.054900517695E+00  6.937480232702E+00  6.819114948110E+00  6.699844708417E+00
  6.579711855965E+00  6.458761060525E+00  6.337039344653E+00  6.214596104453E+00
  6.091483125331E+00  5.967754592339E+00  5.843467094681E+00  5.718679623963E+00
  5.593453565742E+00  5.467852683937E+00  5.341943097654E+00  5.215793249990E+00
  5.089473868362E+00  4.963057915930E+00  4.836620533681E+00  4.710238972755E+00
  4.583992516609E+00  4.457962392637E+00  4.332231672878E+00  4.206885163480E+00
  4.082009282625E+00  3.957691926642E+00  3.834022324092E+00  3.711090877653E+00
  3.588988993692E+00  3.467808899458E+00  3.347643447922E+00  3.228585910335E+00
  3.110729756675E+00  2.994168424235E+00  2.878995074687E+00  2.765302340077E+00
  2.653182058283E+00  2.542724998597E+00  2.434020578213E+00  2.327156570492E+00
  2.222218806041E+00  2.119290867735E+00  2.018453780961E+00  1.919785700485E+00
  1.823361595487E+00  1.729252934404E+00  1.637527371410E+00  1.548248436414E+00
  1.461475230629E+00  1.377262129850E+00  1.295658497669E+00  1.216708410976E+00
  1.140450400120E+00  1.066917206206E+00  9.961355580046E-01  9.281259709871E-01
  8.629025709772E-01  8.004729448841E-01  7.408380209099E-01  6.839919805312E-01
  6.299222044306E-01  5.786092543841E-01  5.300268929205E-01  4.841421423282E-01
  4.409153843160E-01  4.003005013252E-01  3.622450601456E-01  3.266905381070E-01
  2.935725917053E-01  2.628213670799E-01  2.343618512882E-01  2.081142628316E-01
  1.839944793819E-01  1.619145001360E-01  1.417829397085E-01  1.235055499560E-01
  1.069857656256E-01  9.212526924328E-02  7.882457021455E-02  6.698359271120E-02
  5.650226657325E-02  4.728111517905E-02  3.922183403407E-02  3.222785371465E-02
  2.620488078322E-02  2.106141037569E-02  1.670920435527E-02  1.306372923522E-02
  1.004454849765E-02  7.575664476676E-03  5.585805629061E-03  4.008655777594E-03
  2.783022772837E-03  1.852944965072E-03  1.167734894079E-03  6.819606710091E-04
  3.553666217478E-04  1.527358602754E-04  4.369853655627E-05  2.490528249360E-06
  7.668289783989E-06  4.178640720107E-05  9.104510478720E-05  1.449154843279E-04
  1.957506275142E-04  2.383908388283E-04  2.697712378020E-04  2.885396200586E-04
  2.946919974592E-04  2.892325083054E-04  2.738634763716E-04  2.507103181798E-04
  2.220847847266E-04  1.902887171060E-04  1.574591411092E-04  1.254541739586E-04
  9.577791896596E-05  6.954133298002E-05  4.745501613955E-05  2.984903748345E-05
  1.671430925516E-05  7.759682900942E-06  2.478874165459E-06  2.215330258988E-07
  2.632417537511E-07  1.869922101832E-06  4.353018111498E-06  7.112840570772E-06
  9.668550450942E-06  1.167435454987E-05  1.292251929476E-05  1.333471440730E-05
  1.294392172370E-05  1.186964360503E-05  1.028939424591E-05  8.409448901630E-06
  6.437573709829E-06  4.559994916788E-06  2.924240602854E-06  1.628763295147E-06
  7.194988250736E-07  1.928075063965E-07  3.644797627283E-09  7.737459128976E-08
  3.234058517209E-07  6.488173218808E-07  9.703265044030E-07  1.223326140338E-06
  1.367202426727E-06  1.386699033640E-06  1.289628576770E-06  1.101690598975E-06
  8.594762141566E-07  6.028877087324E-07  3.681645204366E-07  1.824995260682E-07
  6.089040906752E-08  5.457845835520E-09  0.000000000000E+00  0.000000000000E+00
  0.000000000000E+00  0.000000000000E+00  0.000000000000E+00  0.000000000000E+00
  0.000000000000E+00  0.000000000000E+00  0.000000000000E+00  0.000000000000E+00
  0.000000000000E+00  0.000000000000E+00
</data>
</radfunc>
</pseudocore-charge>
<semilocal-potentials set="lj">
<slps n="5" l="s" j="0.5" rc="2.00680014348" eref="-0.725928383094">
<radfunc>
<data npts="290">
  3.331203890349E+01  3.329717785994E+01  3.325280871619E+01  3.317897058633E+01
  3.307104204004E+01  3.293404515061E+01  3.276059747543E+01  3.256355495325E+01
  3.234397876791E+01  3.209052397186E+01  3.180814652642E+01  3.150512834647E+01
  3.114423432213E+01  3.077339564219E+01  3.040898995196E+01  2.999655465382E+01
  2.953104335835E+01  2.909882516563E+01  2.862310683909E+01  2.810089824521E+01
  2.752932595114E+01  2.703472335509E+01  2.650558341964E+01  2.594083744428E+01
  2.533961832372E+01  2.470130222800E+01  2.402555131475E+01  2.349415238986E+01
  2.294181414626E+01  2.236879317078E+01  2.177548023658E+01  2.116240740832E+01
  2.053025378891E+01  1.987984965547E+01  1.921217874796E+01  1.852837849973E+01
  1.782973803585E+01  1.711769381142E+01  1.663632436839E+01  1.615019600424E+01
  1.565983334656E+01  1.516578383860E+01  1.466861586212E+01  1.416891667880E+01
  1.366729020542E+01  1.316435463971E+01  1.266073995648E+01  1.215708529514E+01
  1.165403626129E+01  1.115224216625E+01  1.065235322892E+01  1.015501776465E+01
  9.660879385772E+00  9.170574237475E+00  8.684728291799E+00  8.203954721022E+00
  7.728851369699E+00  7.259998342464E+00  6.797955722113E+00  6.343261429773E+00
  5.896429235967E+00  5.457946928379E+00  5.028274639004E+00  4.607843330327E+00
  4.197053437197E+00  3.796273658264E+00  3.405839888287E+00  3.214598520701E+00
  3.026054280308E+00  2.840239529463E+00  2.657184424786E+00  2.476916896875E+00
  2.299462631259E+00  2.124845050459E+00  1.953085297042E+00  1.784202217518E+00
  1.618212346993E+00  1.455129894427E+00  1.294966728413E+00  1.137732363349E+00
  9.834339459260E-01  8.320762418355E-01  6.836616226235E-01  5.381900526374E-01
  3.956590760166E-01  2.560638037037E-01  1.193969004683E-01 -1.435142803871E-02
 -1.451934481631E-01 -2.731439109890E-01 -3.982200648519E-01 -5.204416674958E-01
 -6.398309977171E-01 -7.564128662997E-01 -8.702146260111E-01 -9.812661803848E-01
 -1.089599990975E+00 -1.195251082727E+00 -1.298257047050E+00 -1.398658042143E+00
 -1.496496790072E+00 -1.591818570035E+00 -1.684671207203E+00 -1.775105056495E+00
 -1.863172980545E+00 -1.948930321115E+00 -2.032434863127E+00 -2.113746790447E+00
 -2.192928632504E+00 -2.270045200799E+00 -2.345163514295E+00 -2.418352712670E+00
 -2.489683956385E+00 -2.559230312495E+00 -2.627066625138E+00 -2.693269369631E+00
 -2.757916489135E+00 -2.821087212864E+00 -2.882861854899E+00 -2.943321592688E+00
 -3.002548224441E+00 -3.060623904725E+00 -3.117630857675E+00 -3.173651067427E+00
 -3.228765945510E+00 -3.283055975180E+00 -3.336600332864E+00 -3.389476487150E+00
 -3.441759776034E+00 -3.493522963403E+00 -3.544835776069E+00 -3.595764422988E+00
 -3.646371098630E+00 -3.696713472842E+00 -3.746844169888E+00 -3.796810239719E+00
 -3.846652624889E+00 -3.896405626893E+00 -3.946096376028E+00 -3.995744309225E+00
 -4.045360660592E+00 -4.094947969683E+00 -4.144499612774E+00 -4.193999362627E+00
 -4.243420982393E+00 -4.292727859488E+00 -4.341872685332E+00 -4.390797186942E+00
 -4.439431916400E+00 -4.487696104211E+00 -4.535497582565E+00 -4.582732784449E+00
 -4.629286824536E+00 -4.675033667702E+00 -4.719836390974E+00 -4.763547544700E+00