<?xml version="1.0" encoding="UTF-8" ?>
<psml version="1.1" energy_unit="hartree" length_unit="bohr"
 uuid="bb2459e0-539e-11e8-6448-df42ebf77c49"
 xmlns="http://esl.cecam.org/PSML/ns/1.1">
<provenance creator="ONCVPSP-3.3.0+psml-3.3.0-73 (fully-relativistic)"
 date="2018-05-09">
<annotation action="semilocal-pseudopotential-generation"
 action-cont="projectors-generation" />
<input-file name="oncvpsp-input">
<![CDATA[# atsym z nc nv iexc psfile
Ni 28 3 4 -116133 upf
# n l f
1 0 2.0
2 0 2.0
2 1 6.0
3 0 2.0
3 1 6.0
3 2 8.0
4 0 2.0
# lmax
2
# l rc ep ncon nbas qcut
0 1.25 0.0 4 8 9.7
1 1.35 0.0 4 8 9.7
2 1.65 0.0 4 8 9.7
# lloc lpopt rc5 dvloc0
4 5 1.2 0.0
# l nproj debl
0 2 1.0
1 2 2.8
2 2 1.0
# icmod fcfact
3 3 1.7
# epsh1 epsh2 depsh
-12.0 12.0 0.02
# rlmax drl
6.0 0.01
 0
]]>
</input-file>
</provenance>
<pseudo-atom-spec atomic-label="Ni" atomic-number="28" z-pseudo="18"
 flavor="Hamann&apos;s oncvpsp" relativity="dirac" spin-dft="no"
 core-corrections="yes">
<annotation pseudo-energy="-163.774231650" />
<exchange-correlation>
<annotation oncvpsp-xc-code="-116133" oncvpsp-xc-type="libxc-interface" />
<libxc-info number-of-functionals="2">
<functional name="Perdew, Burke &amp; Ernzerhof SOL (GGA)" type="exchange"
 id="116" />
<functional name="Perdew, Burke &amp; Ernzerhof SOL (GGA)" type="correlation"
 id="133" />
</libxc-info>
</exchange-correlation>
<valence-configuration total-valence-charge="18">
<shell n="3" l="s" occupation="2" />
<shell n="3" l="p" occupation="6" />
<shell n="3" l="d" occupation="8" />
<shell n="4" l="s" occupation="2" />
</valence-configuration>
</pseudo-atom-spec>
<grid npts="457">
<annotation type="sampled from oncvpsp log grid"
 recipe="r(i:1..N) = r1*exp(a*(i-1)) + r=0; resampled"
 recipe-cont="r1: scale; a: step" scale="0.178571428571E-04"
 step="0.119285708653E-01" delta="0.500000000000E-02" rmax="44.1127774257" />
<grid-data>
  0.000000000000E+00  5.037260227087E-03  1.006153199362E-02  1.509390240677E-02
  2.009712055657E-02  2.520946187690E-02  3.051067215696E-02  3.562857378909E-02
  4.111161976253E-02  4.632012396247E-02  5.156966681787E-02  5.673334959985E-02
  6.241407314470E-02  6.784941587428E-02  7.288349463671E-02  7.829107623126E-02
  8.409987265294E-02  8.926843081494E-02  9.475463504026E-02  1.005780070250E-01
  1.067592682175E-01  1.119766932335E-01  1.174490986765E-01  1.231889456778E-01
  1.292093043559E-01  1.355238835779E-01  1.421470621764E-01  1.473260095757E-01
  1.526936453359E-01  1.582568440774E-01  1.640227308887E-01  1.699986904517E-01
  1.761923764999E-01  1.826117216210E-01  1.892649474162E-01  1.961605750303E-01
  2.033074360652E-01  2.107146838912E-01  2.158021792191E-01  2.210125070342E-01
  2.263486330040E-01  2.318135943992E-01  2.374105018224E-01  2.431425409784E-01
  2.490129744878E-01  2.550251437438E-01  2.611824708144E-01  2.674884603897E-01
  2.739467017774E-01  2.805608709451E-01  2.873347326132E-01  2.942721423974E-01
  3.013770490034E-01  3.086534964746E-01  3.161056264935E-01  3.237376807395E-01
  3.315540033033E-01  3.395590431590E-01  3.477573566971E-01  3.561536103172E-01
  3.647525830847E-01  3.735591694507E-01  3.825783820379E-01  3.918153544938E-01
  4.012753444127E-01  4.109637363282E-01  4.208860447781E-01  4.259366773154E-01
  4.310479174432E-01  4.362204924526E-01  4.414551383620E-01  4.467526000223E-01
  4.521136312226E-01  4.575389947973E-01  4.630294627348E-01  4.685858162877E-01
  4.742088460831E-01  4.798993522361E-01  4.856581444629E-01  4.914860421965E-01
  4.973838747028E-01  5.033524811993E-01  5.093927109737E-01  5.155054235054E-01
  5.216914885874E-01  5.279517864505E-01  5.342872078879E-01  5.406986543825E-01
  5.471870382351E-01  5.537532826939E-01  5.603983220863E-01  5.671231019513E-01
  5.739285791747E-01  5.808157221248E-01  5.877855107903E-01  5.948389369198E-01
  6.019770041628E-01  6.092007282128E-01  6.165111369513E-01  6.239092705948E-01
  6.313961818419E-01  6.389729360240E-01  6.466406112563E-01  6.544002985914E-01
  6.622531021745E-01  6.702001394006E-01  6.782425410734E-01  6.863814515662E-01
  6.946180289850E-01  7.029534453329E-01  7.113888866768E-01  7.199255533170E-01
  7.285646599568E-01  7.373074358763E-01  7.461551251068E-01  7.551089866081E-01
  7.641702944473E-01  7.733403379807E-01  7.826204220365E-01  7.920118671009E-01
  8.015160095061E-01  8.111342016202E-01  8.208678120397E-01  8.307182257841E-01
  8.406868444935E-01  8.507750866275E-01  8.609843876670E-01  8.713162003190E-01
  8.817719947228E-01  8.923532586595E-01  9.030614977634E-01  9.138982357366E-01
  9.248650145654E-01  9.359633947402E-01  9.471949554771E-01  9.585612949428E-01
  9.700640304821E-01  9.817047988479E-01  9.934852564341E-01  1.005407079511E+00
  1.017471964465E+00  1.029681628039E+00  1.042037807575E+00  1.054542261266E+00
  1.067196768402E+00  1.080003129622E+00  1.092963167178E+00  1.106078725184E+00
  1.119351669886E+00  1.132783889925E+00  1.146377296604E+00  1.160133824163E+00
  1.174055430053E+00  1.188144095214E+00  1.202401824356E+00  1.216830646249E+00
  1.231432614004E+00  1.246209805372E+00  1.261164323036E+00  1.276298294913E+00
  1.291613874451E+00  1.307113240945E+00  1.322798599836E+00  1.338672183034E+00
  1.354736249231E+00  1.370993084221E+00  1.387445001232E+00  1.404094341247E+00
  1.420943473342E+00  1.437994795022E+00  1.455250732562E+00  1.472713741353E+00
  1.490386306249E+00  1.508270941924E+00  1.526370193227E+00  1.544686635546E+00
  1.563222875173E+00  1.581981549675E+00  1.600965328271E+00  1.620176912210E+00
  1.639619035157E+00  1.659294463578E+00  1.679205997141E+00  1.699356469107E+00
  1.719748746736E+00  1.740385731697E+00  1.761270360478E+00  1.782405604803E+00
  1.803794472061E+00  1.825440005726E+00  1.847345285794E+00  1.869513429224E+00
  1.891947590375E+00  1.914650961459E+00  1.937626772997E+00  1.960878294273E+00
  1.984408833804E+00  2.008221739809E+00  2.032320400687E+00  2.056708245495E+00
  2.081388744441E+00  2.106365409375E+00  2.131641794287E+00  2.157221495819E+00
  2.183108153768E+00  2.209305451614E+00  2.235817117033E+00  2.262646922437E+00
  2.289798685507E+00  2.317276269733E+00  2.345083584969E+00  2.373224587989E+00
  2.401703283045E+00  2.430523722442E+00  2.459690007111E+00  2.489206287196E+00
  2.519076762643E+00  2.549305683794E+00  2.579897352000E+00  2.610856120224E+00
  2.642186393666E+00  2.673892630390E+00  2.705979341955E+00  2.738451094059E+00
  2.771312507187E+00  2.804568257274E+00  2.838223076361E+00  2.872281753277E+00
  2.906749134316E+00  2.941630123928E+00  2.976929685415E+00  3.012652841640E+00
  3.048804675740E+00  3.085390331849E+00  3.122415015831E+00  3.159883996021E+00
  3.197802603973E+00  3.236176235221E+00  3.275010350044E+00  3.314310474244E+00
  3.354082199935E+00  3.394331186334E+00  3.435063160570E+00  3.476283918497E+00
  3.517999325519E+00  3.560215317425E+00  3.602937901235E+00  3.646173156049E+00
  3.689927233922E+00  3.734206360729E+00  3.779016837058E+00  3.824365039102E+00
  3.870257419572E+00  3.916700508607E+00  3.963700914710E+00  4.011265325686E+00
  4.059400509595E+00  4.108113315710E+00  4.157410675498E+00  4.207299603604E+00
  4.257787198847E+00  4.308880645234E+00  4.360587212976E+00  4.412914259532E+00
  4.465869230647E+00  4.519459661414E+00  4.573693177351E+00  4.628577495479E+00
  4.684120425425E+00  4.740329870530E+00  4.797213828977E+00  4.854780394924E+00
  4.913037759664E+00  4.971994212779E+00  5.031658143333E+00  5.092038041053E+00
  5.153142497545E+00  5.214980207516E+00  5.277559970006E+00  5.340890689646E+00
  5.404981377922E+00  5.469841154457E+00  5.535479248311E+00  5.601904999290E+00
  5.669127859282E+00  5.737157393593E+00  5.806003282316E+00  5.875675321704E+00
  5.946183425565E+00  6.017537626671E+00  6.089748078191E+00  6.162825055130E+00
  6.236778955791E+00  6.311620303261E+00  6.387359746900E+00  6.464008063863E+00
  6.541576160629E+00  6.620075074557E+00  6.699515975451E+00  6.779910167157E+00
  6.861269089162E+00  6.943604318232E+00  7.026927570051E+00  7.111250700892E+00
  7.196585709303E+00  7.282944737814E+00  7.370340074668E+00  7.458784155564E+00
  7.548289565431E+00  7.638869040216E+00  7.730535468698E+00  7.823301894323E+00
  7.917181517055E+00  8.012187695259E+00  8.108333947603E+00  8.205633954974E+00
  8.304101562433E+00  8.403750781183E+00  8.504595790557E+00  8.606650940043E+00
  8.709930751324E+00  8.814449920340E+00  8.920223319384E+00  9.027265999217E+00
  9.135593191207E+00  9.245220309502E+00  9.356162953216E+00  9.468436908654E+00
  9.582058151558E+00  9.697042849377E+00  9.813407363569E+00  9.931168251932E+00
  1.005034227096E+01  1.017094637821E+01  1.029299773475E+01  1.041651370756E+01
  1.054151187205E+01  1.066801001452E+01  1.079602613469E+01  1.092557844831E+01
  1.105668538969E+01  1.118936561436E+01  1.132363800174E+01  1.145952165776E+01
  1.159703591765E+01  1.173620034866E+01  1.187703475285E+01  1.201955916988E+01
  1.216379387992E+01  1.230975940648E+01  1.245747651936E+01  1.260696623759E+01
  1.275824983244E+01  1.291134883043E+01  1.306628501639E+01  1.322308043659E+01
  1.338175740183E+01  1.354233849065E+01  1.370484655254E+01  1.386930471117E+01
  1.403573636770E+01  1.420416520412E+01  1.437461518657E+01  1.454711056880E+01
  1.472167589563E+01  1.489833600638E+01  1.507711603845E+01  1.525804143092E+01
  1.544113792809E+01  1.562643158322E+01  1.581394876222E+01  1.600371614737E+01
  1.619576074114E+01  1.639010987003E+01  1.658679118847E+01  1.678583268273E+01
  1.698726267493E+01  1.719110982702E+01  1.739740314495E+01  1.760617198269E+01
  1.781744604648E+01  1.803125539904E+01  1.824763046383E+01  1.846660202939E+01
  1.868820125375E+01  1.891245966879E+01  1.913940918482E+01  1.936908209503E+01
  1.960151108017E+01  1.983672921314E+01  2.007476996369E+01  2.031566720326E+01
  2.055945520970E+01  2.080616867221E+01  2.105584269628E+01  2.130851280864E+01
  2.156421496234E+01  2.182298554189E+01  2.208486136839E+01  2.234987970481E+01
  2.261807826127E+01  2.288949520040E+01  2.316416914281E+01  2.344213917252E+01
  2.372344484259E+01  2.400812618070E+01  2.429622369487E+01  2.458777837921E+01
  2.488283171976E+01  2.518142570040E+01  2.548360280880E+01  2.578940604251E+01
  2.609887891502E+01  2.641206546200E+01  2.672901024754E+01  2.704975837051E+01
  2.737435547096E+01  2.770284773661E+01  2.803528190945E+01  2.837170529236E+01
  2.871216575587E+01  2.905671174494E+01  2.940539228588E+01  2.975825699331E+01
  3.011535607723E+01  3.047674035016E+01  3.084246123436E+01  3.121257076917E+01
  3.158712161840E+01  3.196616707782E+01  3.234976108276E+01  3.273795821575E+01
  3.313081371434E+01  3.352838347891E+01  3.393072408066E+01  3.433789276963E+01
  3.474994748286E+01  3.516694685266E+01  3.558895021489E+01  3.601601761747E+01
  3.644820982888E+01  3.688558834682E+01  3.732821540699E+01  3.777615399187E+01
  3.822946783977E+01  3.868822145385E+01  3.915248011129E+01  3.962230987263E+01
  4.009777759110E+01  4.057895092220E+01  4.106589833326E+01  4.155868911326E+01
  4.205739338262E+01  4.256208210321E+01  4.307282708845E+01  4.358970101351E+01
  4.411277742567E+01
</grid-data>
</grid>
<valence-charge total-charge="18" is-unscreening-charge="yes"
 rescaled-to-z-pseudo="no">
<radfunc>
<data npts="457">
  1.578954492672E+01  1.579817853057E+01  1.582398248157E+01  1.586701653839E+01
  1.592681582066E+01  1.600538745345E+01  1.610543031627E+01  1.621985624607E+01
  1.636177108585E+01  1.651495767507E+01  1.668731480139E+01  1.687428125066E+01
  1.709971970618E+01  1.733455616785E+01  1.756852674773E+01  1.783725114085E+01
  1.814566572221E+01  1.843698893368E+01  1.876330028360E+01  1.912852120799E+01
  1.953693487820E+01  1.989788046954E+01  2.029199854048E+01  2.072199788671E+01
  2.119073364130E+01  2.170119702922E+01  2.225649933395E+01  2.270432868305E+01
  2.318056227371E+01  2.368659017559E+01  2.422380136364E+01  2.479356914137E+01
  2.539723363928E+01  2.603608098443E+01  2.671131870209E+01  2.742404687738E+01
  2.817522457658E+01  2.896563100582E+01  2.951464702651E+01  3.008144886756E+01
  3.066607343467E+01  3.126848782292E+01  3.188858058925E+01  3.252615235313E+01
  3.318090570998E+01  3.385243444921E+01  3.454021207686E+01  3.524357965322E+01
  3.596173296860E+01  3.669370909508E+01  3.743837237061E+01  3.819439989197E+01
  3.896026661829E+01  3.973423021415E+01  4.051431579370E+01  4.129830076304E+01
  4.208369999858E+01  4.286775164353E+01  4.364740385358E+01  4.441930287564E+01
  4.517978289921E+01  4.592485817943E+01  4.665021799047E+01  4.735122502925E+01
  4.802291794752E+01  4.866001874544E+01  4.925694580687E+01  4.953852156268E+01
  4.980783339336E+01  5.006410808048E+01  5.030655843545E+01  5.053438459474E+01
  5.074677546135E+01  5.094291029824E+01  5.112196047945E+01  5.128309140377E+01
  5.142546457548E+01  5.154823985625E+01  5.165057789109E+01  5.173164271079E+01
  5.179060451216E+01  5.182664261623E+01  5.183894860352E+01  5.182672962399E+01
  5.178921187776E+01  5.172564426133E+01  5.163530217184E+01  5.151749146049E+01
  5.137155252376E+01  5.119686451914E+01  5.099284968992E+01  5.075897778076E+01
  5.049477052373E+01  5.019980617168E+01  4.987372405316E+01  4.951622912058E+01
  4.912709646038E+01  4.870617573160E+01  4.825339549639E+01  4.776876740361E+01
  4.725239018418E+01  4.670445341492E+01  4.612524100530E+01  4.551513436028E+01
  4.487461517080E+01  4.420426778278E+01  4.350478109527E+01  4.277694993812E+01
  4.202167588085E+01  4.123996742542E+01  4.043293953816E+01  3.960181247881E+01
  3.874790988869E+01  3.787265610448E+01  3.697757267010E+01  3.606427402522E+01
  3.513446235683E+01  3.418992160849E+01  3.323251065105E+01  3.226415562893E+01
  3.128684150655E+01  3.030260285111E+01  2.931351389962E+01  2.832167797043E+01
  2.732921629166E+01  2.633825633120E+01  2.535091972483E+01  2.436930991025E+01
  2.339549958509E+01  2.243151811653E+01  2.147933903728E+01  2.054086776946E+01
  1.961792972108E+01  1.871225890215E+01  1.782548720608E+01  1.695913449894E+01
  1.611459965229E+01  1.529315264648E+01  1.449592785881E+01  1.372391863619E+01
  1.297797323414E+01  1.225879218435E+01  1.156692713050E+01  1.090278114902E+01
  1.026661054637E+01  9.658528099308E+00  9.078507679842E+00  8.526390181628E+00
  8.001890642260E+00  7.504606434649E+00  7.034026382748E+00  6.589540641866E+00
  6.170451172659E+00  5.775982630760E+00  5.405293491184E+00  5.057487228289E+00
  4.731623377993E+00  4.426728318892E+00  4.141805622978E+00  3.875846059321E+00
  3.627837708604E+00  3.396775577344E+00  3.181668442521E+00  2.981544920544E+00
  2.795458567931E+00  2.622491798603E+00  2.461757781041E+00  2.312401372710E+00
  2.173602479282E+00  2.044578772162E+00  1.924587914185E+00  1.812929280348E+00
  1.708945207062E+00  1.612021801460E+00  1.521589339066E+00  1.437122274069E+00
  1.358138882188E+00  1.284200551971E+00  1.214910736905E+00  1.149913578265E+00
  1.088892207421E+00  1.031566736644E+00  9.776906457279E-01  9.270418618764E-01
  8.794112103304E-01  8.346019563419E-01  7.924291965778E-01  7.527193450624E-01
  7.153096216060E-01  6.800475449607E-01  6.467904326923E-01  6.154049095190E-01
  5.857664256434E-01  5.577587863942E-01  5.312736942987E-01  5.062103045237E-01
  4.824747944608E-01  4.599799480716E-01  4.386447554768E-01  4.183940281364E-01
  3.991580298601E-01  3.808721237759E-01  3.634764352908E-01  3.469155309929E-01
  3.311381133628E-01  3.160967310971E-01  3.017475047814E-01  2.880498675971E-01
  2.749663207012E-01  2.624622028733E-01  2.505054739935E-01  2.390665118855E-01
  2.281179220361E-01  2.176343596860E-01  2.075923637749E-01  1.979702022148E-01
  1.887477279631E-01  1.799062453684E-01  1.714283862627E-01  1.632979952820E-01
  1.555000239078E-01  1.480204327289E-01  1.408461014413E-01  1.339647461131E-01
  1.273648432624E-01  1.210355603078E-01  1.149666919718E-01  1.091486022341E-01
  1.035721714487E-01  9.822874825920E-02  9.311010596180E-02  8.820840298674E-02
  8.351614718348E-02  7.902616361471E-02  7.473156558009E-02  7.062572860793E-02
  6.670226716898E-02  6.295501388257E-02  5.937800100086E-02  5.596544397174E-02
  5.271172689580E-02  4.961138970672E-02  4.665911691818E-02  4.384972779336E-02
  4.117816780579E-02  3.863950126585E-02  3.622890503597E-02  3.394166317322E-02
  3.177316247339E-02  2.971888880501E-02  2.777442416582E-02  2.593544439426E-02
  2.419771747323E-02  2.255710236718E-02  2.100954833573E-02  1.955109466906E-02
  1.817787079079E-02  1.688609667453E-02  1.567208352024E-02  1.453223463626E-02
  1.346304647331E-02  1.246110975700E-02  1.152311066642E-02  1.064583200848E-02
  9.826154339811E-03  9.061056991628E-03  8.347618956929E-03  7.683019604070E-03
  7.064539186038E-03  6.489559120318E-03  5.955562020035E-03  5.460131462934E-03
  5.000951490433E-03  4.575805834512E-03  4.182576875239E-03  3.819244336376E-03
  3.483883730546E-03  3.174664568938E-03  2.889848353352E-03  2.627786370640E-03
  2.386917311220E-03  2.165764734407E-03  1.962934403843E-03  1.777111516350E-03
  1.607057847187E-03  1.451608833919E-03  1.309670620118E-03  1.180217078767E-03
  1.062286833807E-03  9.549802966051E-04  8.574567324293E-04  7.689313702480E-04
  6.886725674072E-04  6.159990390134E-04  5.502771601826E-04  4.909183477394E-04
  4.373765264936E-04  3.891456838840E-04  3.457575155885E-04  3.067791636487E-04
  2.718110477534E-04  2.404847895638E-04  2.124612293334E-04  1.874285335726E-04
  1.651003921143E-04  1.452143026404E-04  1.275299405181E-04  1.118276116462E-04
  9.790678592444E-05  8.558470890569E-05  7.469508917298E-05  6.508685898220E-05
  5.662300572403E-05  4.917947177706E-05  4.264412034402E-05  3.691576488186E-05
  3.190325975235E-05  2.752464973188E-05  2.370637602843E-05  2.038253645988E-05
  1.749419745321E-05  1.498875552960E-05  1.281934594730E-05  1.094429618469E-05
  9.326621960262E-06  7.933563506507E-06  6.736159841028E-06  5.708858811384E-06
  4.829160730476E-06  4.077293467471E-06  3.435916912587E-06  2.889854789723E-06
  2.425851904400E-06  2.032354824026E-06  1.699314402032E-06  1.418008271745E-06
  1.180881598702E-06  9.814048710151E-07  8.139465653053E-07  6.736600694035E-07
  5.563833900116E-07  4.585503149439E-07  3.771118896898E-07  3.094671769058E-07
  2.534023827703E-07  2.070374763219E-07  1.687794944357E-07  1.372817972187E-07
  1.114086046747E-07  9.020420774582E-08  7.286630513129E-08  5.872297159292E-08
  4.721281383618E-08  3.786791657923E-08  3.029922420237E-08  2.418404254654E-08
  1.925538115828E-08  1.529288873629E-08  1.211516390457E-08  9.573249913850E-09
  7.545145650720E-09  5.931186610075E-09  4.650168455171E-09  3.636102639880E-09
  2.835508483745E-09  2.205159247433E-09  1.710211321373E-09  1.322655771055E-09
  1.020040326155E-09  7.844175943362E-10  6.014819510413E-10  4.598633202020E-10
  3.505510239573E-10  2.664251389343E-10  2.018764390143E-10  1.524341953565E-10
  1.147975338270E-10  8.618310541404E-11  6.449637588976E-11  4.811228981949E-11
  3.577404207115E-11  2.651275019528E-11  1.958391934848E-11  1.441735428317E-11
  1.057780340595E-11  7.734139136478E-12  5.635304880788E-12  4.091607321977E-12
  2.960216561527E-12  2.133967036573E-12  1.532738465354E-12  1.096846204736E-12
  7.819909190622E-13  5.554138365202E-13  3.929806494435E-13  2.769780484523E-13
  1.944550505188E-13  1.359792124834E-13  9.470757267170E-14  6.569540526326E-14
  4.538395596158E-14  3.122234086686E-14  2.138960490883E-14  1.459124736364E-14
  9.910882530901E-15  6.702550770578E-15  4.512873085064E-15  3.025021202846E-15
  2.018565339364E-15  1.340827143085E-15  8.865323482254E-16  5.834237760112E-16
  3.821351967937E-16  2.490971037026E-16  1.615898498018E-16  1.043104878567E-16
  6.700154350058E-17  4.282118603256E-17  2.722848249841E-17  1.722473449782E-17
  1.083974729807E-17  6.785723317902E-18  4.225285148704E-18  2.616802639366E-18
  1.611806244713E-18  9.873090679944E-19  6.013994238188E-19  3.642615183055E-19
  2.193685895675E-19  1.313459107748E-19  7.818246660599E-20  4.626176934075E-20
  2.720972460083E-20  1.590683103076E-20  9.242063738298E-21  5.336391346195E-21
  3.061874633687E-21  0.000000000000E+00  0.000000000000E+00  0.000000000000E+00
  0.000000000000E+00  0.000000000000E+00  0.000000000000E+00  0.000000000000E+00
  0.000000000000E+00  0.000000000000E+00  0.000000000000E+00  0.000000000000E+00
  0.000000000000E+00  0.000000000000E+00  0.000000000000E+00  0.000000000000E+00
  0.000000000000E+00  0.000000000000E+00  0.000000000000E+00  0.000000000000E+00
  0.000000000000E+00
</data>
</radfunc>
</valence-charge>
<pseudocore-charge matching-radius="0.387169322622"
 number-of-continuous-derivatives="4">
<annotation model-charge-form="Teter function with specified parameters" />
<radfunc>
<data npts="290">
  1.451528680968E+02  1.451260089862E+02  1.450457362526E+02  1.449118743814E+02
  1.447258863883E+02  1.444815545798E+02  1.441705231435E+02  1.438148690142E+02
  1.433739133999E+02  1.428981051440E+02  1.423629619830E+02  1.417827082091E+02
  1.410833967875E+02  1.403553239959E+02  1.396303272364E+02  1.387981147555E+02
  1.378436003831E+02  1.369425738352E+02  1.359340011219E+02  1.348059825058E+02
  1.335455525963E+02  1.324324634212E+02  1.312179538266E+02  1.298938803283E+02
  1.284516755964E+02  1.268823783933E+02  1.251766786402E+02  1.238021257828E+02
  1.223413262478E+02  1.207901145335E+02  1.191443170440E+02  1.173997883163E+02
  1.155524535653E+02  1.135983581622E+02  1.115337246473E+02  1.093550178521E+02
  1.070590186438E+02  1.046429067154E+02  1.029642626359E+02  1.012306393491E+02
  9.944161979078E+01  9.759693337352E+01  9.569647195122E+01  9.374030649372E+01
  9.172870439942E+01  8.966214735437E+01  8.754134962167E+01  8.536727661969E+01
  8.314116361788E+01  8.086453434838E+01  7.853921929712E+01  7.616737340215E+01
  7.375149284920E+01  7.129443061456E+01  6.879941036570E+01  6.627003828979E+01
  6.371031238146E+01  6.112462868476E+01  5.851778395212E+01  5.589497415622E+01
  5.326178827255E+01  5.062419674186E+01  4.798853402669E+01  4.536147469645E+01
  4.275000251504E+01  4.016137206627E+01  3.760306253846E+01  3.633766358235E+01
  3.508272340423E+01  3.383921453349E+01  3.260811187579E+01  3.139039031484E+01
  3.018702219359E+01  2.899897467910E+01  2.782720701683E+01  2.667266768097E+01
  2.553629142864E+01  2.441899626723E+01  2.332168034519E+01  2.224521877812E+01
  2.119046042311E+01  2.015822461602E+01  1.914929788733E+01  1.816443067388E+01
  1.720433404498E+01  1.626967646272E+01  1.536108059752E+01  1.447912022109E+01
  1.362431720018E+01  1.279713861502E+01  1.199799402765E+01  1.122723292554E+01
  1.048514236651E+01  9.771944850950E+00  9.087796447657E+00  8.432785198721E+00
  7.806929828775E+00  7.210178782659E+00  6.642409614368E+00  6.103428748497E+00
  5.592971633377E+00  5.110703302694E+00  4.656219359614E+00  4.229047394230E+00
  3.828648841661E+00  3.454421284127E+00  3.105701196155E+00  2.781767127392E+00
  2.481843312721E+00  2.205103694206E+00  1.950676334165E+00  1.717648193253E+00
  1.505070242000E+00  1.311962868891E+00  1.137321542800E+00  9.801226825703E-01
  8.393296818921E-01  7.138990333568E-01  6.027864919356E-01  5.049532151231E-01
  4.193718147808E-01  3.450322543961E-01  2.809475251356E-01  2.261590348023E-01
  1.797416456785E-01  1.408083002925E-01  1.085141784185E-01  8.206033411273E-02
  6.069676826314E-02  4.372489994486E-02  3.049940872102E-02  2.042942979129E-02
  1.297909440467E-02  7.667419022391E-03  4.067558117366E-03  1.805446971029E-03
  5.578721015088E-04  5.001773255120E-05  5.254668866623E-05  3.782829750630E-04
  8.785707790628E-04  1.439390442092E-03  1.977315860622E-03  2.435399587998E-03
  2.779071490543E-03  2.992134090595E-03  3.072932711097E-03  3.030771307437E-03
  2.882635603590E-03  2.650274097789E-03  2.357675005615E-03  2.028963677137E-03
  1.686730932045E-03  1.350788620389E-03  1.037335078548E-03  7.585005534659E-04
  5.222316308130E-04  3.324646902249E-04  1.895318094619E-04  9.073863160506E-05
  3.105265221156E-05  3.842192519725E-06  1.610866326711E-06  1.667933796482E-05
  4.177518191582E-05  7.050214418983E-05  9.767143152554E-05  1.194891203801E-04
  1.336046746987E-04  1.390352159449E-04  1.359880109076E-04  1.256091715623E-04
  1.096895034446E-04  9.035869620805E-05  6.979673196212E-05  4.998680776607E-05
  3.252772528757E-05  1.851623393973E-05  8.501953995034E-06  2.510007173977E-06
  1.200503639293E-07  5.856321383070E-07  2.975081410423E-06  6.314678624937E-06
  9.716591381446E-06  1.247767460926E-05  1.414022623450E-05  1.451148676274E-05
  1.364433720236E-05  1.178656576288E-05  9.309633710559E-06  6.629662325625E-06
  4.133225199388E-06  2.118577972729E-06  7.595666990711E-07  9.520840109532E-08
  0.000000000000E+00  0.000000000000E+00  0.000000000000E+00  0.000000000000E+00
  0.000000000000E+00  0.000000000000E+00  0.000000000000E+00  0.000000000000E+00
  0.000000000000E+00  0.000000000000E+00  0.000000000000E+00  0.000000000000E+00
  0.000000000000E+00  0.000000000000E+00  0.000000000000E+00  0.000000000000E+00
  0.000000000000E+00  0.000000000000E+00  0.000000000000E+00  0.000000000000E+00
  0.000000000000E+00  0.000000000000E+00  0.000000000000E+00  0.000000000000E+00
  0.000000000000E+00  0.000000000000E+00  0.000000000000E+00  0.000000000000E+00
  0.000000000000E+00  0.000000000000E+00  0.000000000000E+00  0.000000000000E+00
  0.000000000000E+00  0.000000000000E+00  0.000000000000E+00  0.000000000000E+00
  0.000000000000E+00  0.000000000000E+00  0.000000000000E+00  0.000000000000E+00
  0.000000000000E+00  0.000000000000E+00  0.000000000000E+00  0.000000000000E+00
  0.000000000000E+00  0.000000000000E+00  0.000000000000E+00  0.000000000000E+00
  0.000000000000E+00  0.000000000000E+00  0.000000000000E+00  0.000000000000E+00
  0.000000000000E+00  0.000000000000E+00  0.000000000000E+00  0.000000000000E+00
  0.000000000000E+00  0.000000000000E+00  0.000000000000E+00  0.000000000000E+00
  0.000000000000E+00  0.000000000000E+00  0.000000000000E+00  0.000000000000E+00
  0.000000000000E+00  0.000000000000E+00  0.000000000000E+00  0.000000000000E+00
  0.000000000000E+00  0.000000000000E+00  0.000000000000E+00  0.000000000000E+00
  0.000000000000E+00  0.000000000000E+00  0.000000000000E+00  0.000000000000E+00
  0.000000000000E+00  0.000000000000E+00  0.000000000000E+00  0.000000000000E+00
  0.000000000000E+00  0.000000000000E+00  0.000000000000E+00  0.000000000000E+00
  0.000000000000E+00  0.000000000000E+00  0.000000000000E+00  0.000000000000E+00
  0.000000000000E+00  0.000000000000E+00  0.000000000000E+00  0.000000000000E+00
  0.000000000000E+00  0.000000000000E+00
</data>
</radfunc>
</pseudocore-charge>
<semilocal-potentials set="lj">
<slps n="3" l="s" j="0.5" rc="1.26116432304" eref="-4.06994480602">
<radfunc>
<data npts="290">
 -2.558242816278E+01 -2.558277224610E+01 -2.558380048572E+01 -2.558551491575E+01
 -2.558789643485E+01 -2.559102411502E+01 -2.559500410013E+01 -2.559955298040E+01
 -2.560518972886E+01 -2.561126802499E+01 -2.561809929109E+01 -2.562550029717E+01
 -2.563441122888E+01 -2.564367839637E+01 -2.565289575834E+01 -2.566346277696E+01
 -2.567556452107E+01 -2.568696973747E+01 -2.569971441628E+01 -2.571394017715E+01
 -2.572979916752E+01 -2.574377089434E+01 -2.575897855185E+01 -2.577551225900E+01
 -2.579346430952E+01 -2.581292802664E+01 -2.583399624297E+01 -2.585090487805E+01
 -2.586880338974E+01 -2.588772588980E+01 -2.590770331458E+01 -2.592876239707E+01
 -2.595092446208E+01 -2.597420402063E+01 -2.599860713833E+01 -2.602412954955E+01
 -2.605075448804E+01 -2.607845020236E+01 -2.609748523635E+01 -2.611695483612E+01
 -2.613683465143E+01 -2.615709521136E+01 -2.617770137802E+01 -2.619861175856E+01
 -2.621977807388E+01 -2.624114448287E+01 -2.626264686118E+01 -2.628421203407E+01
 -2.630575696325E+01 -2.632718788834E+01 -2.634839942417E+01 -2.636927361610E+01
 -2.638967895640E+01 -2.640946936601E+01 -2.642848314709E+01 -2.644654191333E+01
 -2.646344950653E+01 -2.647899090963E+01 -2.649293116827E+01 -2.650501433484E+01
 -2.651496245090E+01 -2.652247458601E+01 -2.652722595264E+01 -2.652886711902E+01
 -2.652702334305E+01 -2.652129405212E+01 -2.651125249477E+01 -2.650447405669E+01
 -2.649644559086E+01 -2.648710636085E+01 -2.647639400793E+01 -2.646424456775E+01
 -2.645059249176E+01 -2.643537067348E+01 -2.641851047978E+01 -2.639994178768E+01
 -2.637959302660E+01 -2.635739122651E+01 -2.633326207221E+01 -2.630712996393E+01
 -2.627891808464E+01 -2.624854847427E+01 -2.621594211121E+01 -2.618101900136E+01
 -2.614369827505E+01 -2.610389829227E+01 -2.606153675637E+01 -2.601653083672E+01
 -2.596879730069E+01 -2.591825265510E+01 -2.586481329773E+01 -2.580839567895E+01
 -2.574891647390E+01 -2.568629276532E+01 -2.562044223727E+01 -2.555128337979E+01
 -2.547873570443E+01 -2.540271997057E+01 -2.532315842234E+01 -2.523997503553E+01
 -2.515309577411E+01 -2.506244885557E+01 -2.496796502402E+01 -2.486957783004E+01
 -2.476722391598E+01 -2.466084330501E+01 -2.455037969251E+01 -2.443578073775E+01
 -2.431699835417E+01 -2.419398899612E+01 -2.406671394037E+01 -2.393513956026E+01
 -2.379923759118E+01 -2.365898538567E+01 -2.351436615727E+01 -2.336536921246E+01
 -2.321199017046E+01 -2.305423117153E+01 -2.289210107477E+01 -2.272561564739E+01
 -2.255479774794E+01 -2.237967750708E+01 -2.220029251022E+01 -2.201668798715E+01
 -2.182891701512E+01 -2.163704074245E+01 -2.144112864129E+01 -2.124125879920E+01
 -2.103751826058E+01 -2.083000343086E+01 -2.061882055777E+01 -2.040408630630E+01
 -2.018592844608E+01 -1.996448667233E+01 -1.973991358436E+01 -1.951237584819E+01
 -1.928205557293E+01 -1.904915193321E+01 -1.881388307250E+01 -1.857648832395E+01
 -1.833723078685E+01 -1.809640029596E+01 -1.785431681992E+01 -1.761133432011E+01
 -1.736784509539E+01 -1.712428462800E+01 -1.688113693324E+01 -1.663894039911E+01
 -1.639829408191E+01 -1.615986440121E+01 -1.592439215168E+01 -1.569269972170E+01
 -1.546569838070E+01 -1.524439546918E+01 -1.502990130018E+01 -1.482343556638E+01