<?xml version="1.0" encoding="UTF-8" ?>
<psml version="1.1" energy_unit="hartree" length_unit="bohr"
 uuid="c1aec7d0-53a0-11e8-6aa7-2285fe7aa73c"
 xmlns="http://esl.cecam.org/PSML/ns/1.1">
<provenance creator="ONCVPSP-3.3.0+psml-3.3.0-73 (fully-relativistic)"
 date="2018-05-09">
<annotation action="semilocal-pseudopotential-generation"
 action-cont="projectors-generation" />
<input-file name="oncvpsp-input">
<![CDATA[# atsym z nc nv iexc psfile
Ni 28 3 4 -116133 upf
# n l f
1 0 2.0
2 0 2.0
2 1 6.0
3 0 2.0
3 1 6.0
3 2 8.0
4 0 2.0
# lmax
2
# l rc ep ncon nbas qcut
0 1.2 0.0 4 8 10.2
1 1.25 0.0 4 8 10.0
2 1.55 0.0 4 8 10.0
# lloc lpopt rc5 dvloc0
4 5 1.2 0.0
# l nproj debl
0 2 1.0
1 2 2.8
2 2 1.0
# icmod fcfact
3 3 1.7
# epsh1 epsh2 depsh
-12.0 12.0 0.02
# rlmax drl
6.0 0.01
 0
]]>
</input-file>
</provenance>
<pseudo-atom-spec atomic-label="Ni" atomic-number="28" z-pseudo="18"
 flavor="Hamann&apos;s oncvpsp" relativity="dirac" spin-dft="no"
 core-corrections="yes">
<annotation pseudo-energy="-164.938635826" />
<exchange-correlation>
<annotation oncvpsp-xc-code="-116133" oncvpsp-xc-type="libxc-interface" />
<libxc-info number-of-functionals="2">
<functional name="Perdew, Burke &amp; Ernzerhof SOL (GGA)" type="exchange"
 id="116" />
<functional name="Perdew, Burke &amp; Ernzerhof SOL (GGA)" type="correlation"
 id="133" />
</libxc-info>
</exchange-correlation>
<valence-configuration total-valence-charge="18">
<shell n="3" l="s" occupation="2" />
<shell n="3" l="p" occupation="6" />
<shell n="3" l="d" occupation="8" />
<shell n="4" l="s" occupation="2" />
</valence-configuration>
</pseudo-atom-spec>
<grid npts="457">
<annotation type="sampled from oncvpsp log grid"
 recipe="r(i:1..N) = r1*exp(a*(i-1)) + r=0; resampled"
 recipe-cont="r1: scale; a: step" scale="0.178571428571E-04"
 step="0.119285708653E-01" delta="0.500000000000E-02" rmax="44.1127774257" />
<grid-data>
  0.000000000000E+00  5.037260227087E-03  1.006153199362E-02  1.509390240677E-02
  2.009712055657E-02  2.520946187690E-02  3.051067215696E-02  3.562857378909E-02
  4.111161976253E-02  4.632012396247E-02  5.156966681787E-02  5.673334959985E-02
  6.241407314470E-02  6.784941587428E-02  7.288349463671E-02  7.829107623126E-02
  8.409987265294E-02  8.926843081494E-02  9.475463504026E-02  1.005780070250E-01
  1.067592682175E-01  1.119766932335E-01  1.174490986765E-01  1.231889456778E-01
  1.292093043559E-01  1.355238835779E-01  1.421470621764E-01  1.473260095757E-01
  1.526936453359E-01  1.582568440774E-01  1.640227308887E-01  1.699986904517E-01
  1.761923764999E-01  1.826117216210E-01  1.892649474162E-01  1.961605750303E-01
  2.033074360652E-01  2.107146838912E-01  2.158021792191E-01  2.210125070342E-01
  2.263486330040E-01  2.318135943992E-01  2.374105018224E-01  2.431425409784E-01
  2.490129744878E-01  2.550251437438E-01  2.611824708144E-01  2.674884603897E-01
  2.739467017774E-01  2.805608709451E-01  2.873347326132E-01  2.942721423974E-01
  3.013770490034E-01  3.086534964746E-01  3.161056264935E-01  3.237376807395E-01
  3.315540033033E-01  3.395590431590E-01  3.477573566971E-01  3.561536103172E-01
  3.647525830847E-01  3.735591694507E-01  3.825783820379E-01  3.918153544938E-01
  4.012753444127E-01  4.109637363282E-01  4.208860447781E-01  4.259366773154E-01
  4.310479174432E-01  4.362204924526E-01  4.414551383620E-01  4.467526000223E-01
  4.521136312226E-01  4.575389947973E-01  4.630294627348E-01  4.685858162877E-01
  4.742088460831E-01  4.798993522361E-01  4.856581444629E-01  4.914860421965E-01
  4.973838747028E-01  5.033524811993E-01  5.093927109737E-01  5.155054235054E-01
  5.216914885874E-01  5.279517864505E-01  5.342872078879E-01  5.406986543825E-01
  5.471870382351E-01  5.537532826939E-01  5.603983220863E-01  5.671231019513E-01
  5.739285791747E-01  5.808157221248E-01  5.877855107903E-01  5.948389369198E-01
  6.019770041628E-01  6.092007282128E-01  6.165111369513E-01  6.239092705948E-01
  6.313961818419E-01  6.389729360240E-01  6.466406112563E-01  6.544002985914E-01
  6.622531021745E-01  6.702001394006E-01  6.782425410734E-01  6.863814515662E-01
  6.946180289850E-01  7.029534453329E-01  7.113888866768E-01  7.199255533170E-01
  7.285646599568E-01  7.373074358763E-01  7.461551251068E-01  7.551089866081E-01
  7.641702944473E-01  7.733403379807E-01  7.826204220365E-01  7.920118671009E-01
  8.015160095061E-01  8.111342016202E-01  8.208678120397E-01  8.307182257841E-01
  8.406868444935E-01  8.507750866275E-01  8.609843876670E-01  8.713162003190E-01
  8.817719947228E-01  8.923532586595E-01  9.030614977634E-01  9.138982357366E-01
  9.248650145654E-01  9.359633947402E-01  9.471949554771E-01  9.585612949428E-01
  9.700640304821E-01  9.817047988479E-01  9.934852564341E-01  1.005407079511E+00
  1.017471964465E+00  1.029681628039E+00  1.042037807575E+00  1.054542261266E+00
  1.067196768402E+00  1.080003129622E+00  1.092963167178E+00  1.106078725184E+00
  1.119351669886E+00  1.132783889925E+00  1.146377296604E+00  1.160133824163E+00
  1.174055430053E+00  1.188144095214E+00  1.202401824356E+00  1.216830646249E+00
  1.231432614004E+00  1.246209805372E+00  1.261164323036E+00  1.276298294913E+00
  1.291613874451E+00  1.307113240945E+00  1.322798599836E+00  1.338672183034E+00
  1.354736249231E+00  1.370993084221E+00  1.387445001232E+00  1.404094341247E+00
  1.420943473342E+00  1.437994795022E+00  1.455250732562E+00  1.472713741353E+00
  1.490386306249E+00  1.508270941924E+00  1.526370193227E+00  1.544686635546E+00
  1.563222875173E+00  1.581981549675E+00  1.600965328271E+00  1.620176912210E+00
  1.639619035157E+00  1.659294463578E+00  1.679205997141E+00  1.699356469107E+00
  1.719748746736E+00  1.740385731697E+00  1.761270360478E+00  1.782405604803E+00
  1.803794472061E+00  1.825440005726E+00  1.847345285794E+00  1.869513429224E+00
  1.891947590375E+00  1.914650961459E+00  1.937626772997E+00  1.960878294273E+00
  1.984408833804E+00  2.008221739809E+00  2.032320400687E+00  2.056708245495E+00
  2.081388744441E+00  2.106365409375E+00  2.131641794287E+00  2.157221495819E+00
  2.183108153768E+00  2.209305451614E+00  2.235817117033E+00  2.262646922437E+00
  2.289798685507E+00  2.317276269733E+00  2.345083584969E+00  2.373224587989E+00
  2.401703283045E+00  2.430523722442E+00  2.459690007111E+00  2.489206287196E+00
  2.519076762643E+00  2.549305683794E+00  2.579897352000E+00  2.610856120224E+00
  2.642186393666E+00  2.673892630390E+00  2.705979341955E+00  2.738451094059E+00
  2.771312507187E+00  2.804568257274E+00  2.838223076361E+00  2.872281753277E+00
  2.906749134316E+00  2.941630123928E+00  2.976929685415E+00  3.012652841640E+00
  3.048804675740E+00  3.085390331849E+00  3.122415015831E+00  3.159883996021E+00
  3.197802603973E+00  3.236176235221E+00  3.275010350044E+00  3.314310474244E+00
  3.354082199935E+00  3.394331186334E+00  3.435063160570E+00  3.476283918497E+00
  3.517999325519E+00  3.560215317425E+00  3.602937901235E+00  3.646173156049E+00
  3.689927233922E+00  3.734206360729E+00  3.779016837058E+00  3.824365039102E+00
  3.870257419572E+00  3.916700508607E+00  3.963700914710E+00  4.011265325686E+00
  4.059400509595E+00  4.108113315710E+00  4.157410675498E+00  4.207299603604E+00
  4.257787198847E+00  4.308880645234E+00  4.360587212976E+00  4.412914259532E+00
  4.465869230647E+00  4.519459661414E+00  4.573693177351E+00  4.628577495479E+00
  4.684120425425E+00  4.740329870530E+00  4.797213828977E+00  4.854780394924E+00
  4.913037759664E+00  4.971994212779E+00  5.031658143333E+00  5.092038041053E+00
  5.153142497545E+00  5.214980207516E+00  5.277559970006E+00  5.340890689646E+00
  5.404981377922E+00  5.469841154457E+00  5.535479248311E+00  5.601904999290E+00
  5.669127859282E+00  5.737157393593E+00  5.806003282316E+00  5.875675321704E+00
  5.946183425565E+00  6.017537626671E+00  6.089748078191E+00  6.162825055130E+00
  6.236778955791E+00  6.311620303261E+00  6.387359746900E+00  6.464008063863E+00
  6.541576160629E+00  6.620075074557E+00  6.699515975451E+00  6.779910167157E+00
  6.861269089162E+00  6.943604318232E+00  7.026927570051E+00  7.111250700892E+00
  7.196585709303E+00  7.282944737814E+00  7.370340074668E+00  7.458784155564E+00
  7.548289565431E+00  7.638869040216E+00  7.730535468698E+00  7.823301894323E+00
  7.917181517055E+00  8.012187695259E+00  8.108333947603E+00  8.205633954974E+00
  8.304101562433E+00  8.403750781183E+00  8.504595790557E+00  8.606650940043E+00
  8.709930751324E+00  8.814449920340E+00  8.920223319384E+00  9.027265999217E+00
  9.135593191207E+00  9.245220309502E+00  9.356162953216E+00  9.468436908654E+00
  9.582058151558E+00  9.697042849377E+00  9.813407363569E+00  9.931168251932E+00
  1.005034227096E+01  1.017094637821E+01  1.029299773475E+01  1.041651370756E+01
  1.054151187205E+01  1.066801001452E+01  1.079602613469E+01  1.092557844831E+01
  1.105668538969E+01  1.118936561436E+01  1.132363800174E+01  1.145952165776E+01
  1.159703591765E+01  1.173620034866E+01  1.187703475285E+01  1.201955916988E+01
  1.216379387992E+01  1.230975940648E+01  1.245747651936E+01  1.260696623759E+01
  1.275824983244E+01  1.291134883043E+01  1.306628501639E+01  1.322308043659E+01
  1.338175740183E+01  1.354233849065E+01  1.370484655254E+01  1.386930471117E+01
  1.403573636770E+01  1.420416520412E+01  1.437461518657E+01  1.454711056880E+01
  1.472167589563E+01  1.489833600638E+01  1.507711603845E+01  1.525804143092E+01
  1.544113792809E+01  1.562643158322E+01  1.581394876222E+01  1.600371614737E+01
  1.619576074114E+01  1.639010987003E+01  1.658679118847E+01  1.678583268273E+01
  1.698726267493E+01  1.719110982702E+01  1.739740314495E+01  1.760617198269E+01
  1.781744604648E+01  1.803125539904E+01  1.824763046383E+01  1.846660202939E+01
  1.868820125375E+01  1.891245966879E+01  1.913940918482E+01  1.936908209503E+01
  1.960151108017E+01  1.983672921314E+01  2.007476996369E+01  2.031566720326E+01
  2.055945520970E+01  2.080616867221E+01  2.105584269628E+01  2.130851280864E+01
  2.156421496234E+01  2.182298554189E+01  2.208486136839E+01  2.234987970481E+01
  2.261807826127E+01  2.288949520040E+01  2.316416914281E+01  2.344213917252E+01
  2.372344484259E+01  2.400812618070E+01  2.429622369487E+01  2.458777837921E+01
  2.488283171976E+01  2.518142570040E+01  2.548360280880E+01  2.578940604251E+01
  2.609887891502E+01  2.641206546200E+01  2.672901024754E+01  2.704975837051E+01
  2.737435547096E+01  2.770284773661E+01  2.803528190945E+01  2.837170529236E+01
  2.871216575587E+01  2.905671174494E+01  2.940539228588E+01  2.975825699331E+01
  3.011535607723E+01  3.047674035016E+01  3.084246123436E+01  3.121257076917E+01
  3.158712161840E+01  3.196616707782E+01  3.234976108276E+01  3.273795821575E+01
  3.313081371434E+01  3.352838347891E+01  3.393072408066E+01  3.433789276963E+01
  3.474994748286E+01  3.516694685266E+01  3.558895021489E+01  3.601601761747E+01
  3.644820982888E+01  3.688558834682E+01  3.732821540699E+01  3.777615399187E+01
  3.822946783977E+01  3.868822145385E+01  3.915248011129E+01  3.962230987263E+01
  4.009777759110E+01  4.057895092220E+01  4.106589833326E+01  4.155868911326E+01
  4.205739338262E+01  4.256208210321E+01  4.307282708845E+01  4.358970101351E+01
  4.411277742567E+01
</grid-data>
</grid>
<valence-charge total-charge="18" is-unscreening-charge="yes"
 rescaled-to-z-pseudo="no">
<radfunc>
<data npts="457">
  1.331226155395E+01  1.332199639400E+01  1.335109237232E+01  1.339961883455E+01
  1.346705478820E+01  1.355566841793E+01  1.366851057657E+01  1.379759393514E+01
  1.395771400442E+01  1.413058474935E+01  1.432513016936E+01  1.453621425864E+01
  1.479080002917E+01  1.505607640620E+01  1.532045291568E+01  1.562419554397E+01
  1.597292598941E+01  1.630245323222E+01  1.667169705043E+01  1.708514393757E+01
  1.754770299467E+01  1.795668896831E+01  1.840346212467E+01  1.889114565026E+01
  1.942303860679E+01  2.000260559617E+01  2.063345985702E+01  2.114250198323E+01
  2.168410426173E+01  2.225989490916E+01  2.287150583034E+01  2.352055606846E+01
  2.420863178792E+01  2.493726228800E+01  2.570789149830E+01  2.652184436167E+01
  2.738028747033E+01  2.828418328935E+01  2.891239273685E+01  2.956125678002E+01
  3.023083726518E+01  3.092111487494E+01  3.163197864521E+01  3.236321464657E+01
  3.311449381031E+01  3.388535888773E+01  3.467521054279E+01  3.548329259191E+01
  3.630867642143E+01  3.715024463353E+01  3.800667399531E+01  3.887641779416E+01
  3.975768773514E+01  4.064843555403E+01  4.154633456263E+01  4.244876139159E+01
  4.335277824991E+01  4.425511608038E+01  4.515215905463E+01  4.603993092160E+01
  4.691408379670E+01  4.776989005506E+01  4.860223806940E+01  4.940563260855E+01
  5.017420078390E+01  5.090170449363E+01  5.158156036526E+01  5.190147546321E+01
  5.220686822859E+01  5.249683287909E+01  5.277044915943E+01  5.302678412458E+01
  5.326489411062E+01  5.348382689958E+01  5.368262408398E+01  5.386032363614E+01
  5.401596268634E+01  5.414858051285E+01  5.425722174568E+01  5.434093978470E+01
  5.439880043092E+01  5.442988572849E+01  5.443329801285E+01  5.440816415842E+01
  5.435364001732E+01  5.426891503782E+01  5.415321704916E+01  5.400581719635E+01
  5.382603500574E+01  5.361324355955E+01  5.336687475384E+01  5.308642461183E+01
  5.277145862088E+01  5.242161705812E+01  5.203662026669E+01  5.161627384110E+01
  5.116047367708E+01  5.066921083840E+01  5.014257619015E+01  4.958076474562E+01
  4.898407967163E+01  4.835293589521E+01  4.768786325352E+01  4.698950912790E+01
  4.625864050295E+01  4.549614539204E+01  4.470303357227E+01  4.388043657394E+01
  4.302960687316E+01  4.215191624001E+01  4.124885320063E+01  4.032201957736E+01
  3.937312607912E+01  3.840398692264E+01  3.741651347482E+01  3.641270691781E+01
  3.539464994943E+01  3.436449754518E+01  3.332446682063E+01  3.227682604784E+01
  3.122388289316E+01  3.016797195879E+01  2.911144172477E+01  2.805664100194E+01
  2.700590501997E+01  2.596154128649E+01  2.492581536430E+01  2.390093672269E+01
  2.288904482558E+01  2.189219562379E+01  2.091234862059E+01  1.995135467789E+01
  1.901094472653E+01  1.809271953576E+01  1.719814068605E+01  1.632852287471E+01
  1.548502766577E+01  1.466865877496E+01  1.388025895691E+01  1.312050853600E+01
  1.238992559481E+01  1.168886780528E+01  1.101753585916E+01  1.037597842507E+01
  9.764098532336E+00  9.181661255697E+00  8.628302552136E+00  8.103539081146E+00
  7.606778824111E+00  7.137332307215E+00  6.694424226188E+00  6.277205270227E+00
  5.884763947050E+00  5.516138220937E+00  5.170326790765E+00  4.846300138541E+00
  4.543011988526E+00  4.259410426504E+00  3.994445616003E+00  3.747076461224E+00
  3.516275320530E+00  3.301031940103E+00  3.100359330749E+00  2.913298941012E+00
  2.738925292874E+00  2.576350030701E+00  2.424725403295E+00  2.283247198725E+00
  2.151157148913E+00  2.027744816169E+00  1.912348967773E+00  1.804358438082E+00
  1.703212471504E+00  1.608400534863E+00  1.519461585183E+00  1.435982779436E+00
  1.357597616953E+00  1.283981750223E+00  1.214841436405E+00  1.149898241898E+00
  1.088888666008E+00  1.031563549912E+00  9.776875932437E-01  9.270388578569E-01
  8.794082624162E-01  8.345990711351E-01  7.924263797287E-01  7.527166013496E-01
  7.153069550119E-01  6.800449587420E-01  6.467879294452E-01  6.154024912400E-01
  5.857640937859E-01  5.577565419210E-01  5.312715377300E-01  5.062082359824E-01
  4.824728137131E-01  4.599780545659E-01  4.386429483779E-01  4.183923063584E-01
  3.991563920954E-01  3.808705685228E-01  3.634749608783E-01  3.469141356030E-01
  3.311367950522E-01  3.160954878156E-01  3.017463343896E-01  2.880487678824E-01
  2.749652893923E-01  2.624612376533E-01  2.505045725122E-01  2.390656717704E-01
  2.281171409023E-01  2.176336351456E-01  2.075916934451E-01  1.979695837253E-01
  1.887471589631E-01  1.799057235328E-01  1.714279092975E-01  1.632975609294E-01
  1.554996299506E-01  1.480200769947E-01  1.408457818057E-01  1.339644605033E-01
  1.273645896595E-01  1.210353367494E-01  1.149664965542E-01  1.091484331136E-01
  1.035720268436E-01  9.822862645024E-02  9.311000529371E-02  8.820832186851E-02
  8.351608408884E-02  7.902611708228E-02  7.473153421338E-02  7.062571107510E-02
  6.670226220242E-02  6.295502027834E-02  5.937801761794E-02  5.596546973113E-02
  5.271176077951E-02  4.961143075661E-02  4.665916423468E-02  4.384978053412E-02
  4.117822518414E-02  3.863956254932E-02  3.622896954457E-02  3.394173027775E-02
  3.177323159367E-02  2.971895940804E-02  2.777449576391E-02  2.593551654310E-02
  2.419778977000E-02  2.255717444854E-02  2.100961987587E-02  1.955116537774E-02
  1.817794041135E-02  1.688616498198E-02  1.567215031927E-02  1.453229975935E-02
  1.346310977887E-02  1.246117112750E-02  1.152317000663E-02  1.064588924369E-02
  9.826209414160E-03  9.061109866488E-03  8.347669609320E-03  7.683068025168E-03
  7.064585379742E-03  6.489603101893E-03  5.955603814827E-03  5.460171105153E-03
  5.000989022018E-03  4.575841304062E-03  4.182610337024E-03  3.819275849413E-03
  3.483913357751E-03  3.174692376341E-03  2.889874409383E-03  2.627810745476E-03
  2.386940076190E-03  2.165785961463E-03  1.962954165078E-03  1.777129883572E-03
  1.607074891540E-03  1.451624625554E-03  1.309685227901E-03  1.180230570031E-03
  1.062299274138E-03  9.549917496668E-04  8.574672598128E-04  7.689410313548E-04
  6.886814193566E-04  6.160071365743E-04  5.502845557264E-04  4.909250912131E-04
  4.373826654097E-04  3.891512633265E-04  3.457625782328E-04  3.067837497939E-04
  2.718151953652E-04  2.404885343266E-04  2.124646047112E-04  1.874315708758E-04
  1.651031205728E-04  1.452167494813E-04  1.275321310466E-04  1.118295693298E-04
  9.790853247860E-05  8.558626438093E-05  7.469647204216E-05  6.508808622774E-05
  5.662409292437E-05  4.918043319178E-05  4.264496899730E-05  3.691651264384E-05
  3.190391741801E-05  2.752522709724E-05  2.370688196382E-05  2.038297898007E-05
  1.749458378429E-05  1.498909217251E-05  1.281963873794E-05  1.094455035064E-05
  9.326842173992E-06  7.933753935287E-06  6.736324193456E-06  5.709000380678E-06
  4.829282434610E-06  4.077397886272E-06  3.436006321913E-06  2.889931192856E-06
  2.425917060801E-06  2.032410275585E-06  1.699361496967E-06  1.418048186297E-06
  1.180915356776E-06  9.814333619038E-07  8.139705596402E-07  6.736802334665E-07
  5.564002985465E-07  4.585644625937E-07  3.771237011776E-07  3.094770160717E-07
  2.534105605706E-07  2.070442578915E-07  1.687851053053E-07  1.372864287740E-07
  1.114124189361E-07  9.020734154352E-08  7.286887374033E-08  5.872507189098E-08
  4.721452703867E-08  3.786931060200E-08  3.030035569714E-08  2.418495864957E-08
  1.925612098863E-08  1.529348467589E-08  1.211564268896E-08  9.573633558971E-09
  7.545452238140E-09  5.931430950514E-09  4.650362647536E-09  3.636256540947E-09
  2.835630101641E-09  2.205255070341E-09  1.710286591315E-09  1.322714711270E-09
  1.020086329780E-09  7.844533782825E-10  6.011493646324E-10  4.596272346423E-10
  3.503841757434E-10  2.663077581554E-10  2.017942485340E-10  1.524418440543E-10
  1.148033728282E-10  8.618754885154E-11  6.449974653761E-11  4.811483844248E-11
  3.577596285996E-11  2.651419303838E-11  1.958499955679E-11  1.441816027017E-11
  1.057840273272E-11  7.734583253243E-12  5.635632833359E-12  4.091848638785E-12
  2.960393494516E-12  2.134096294318E-12  1.532832548628E-12  1.096914431958E-12
  7.820402107234E-13  5.554493130034E-13  3.930060849038E-13  2.769962141011E-13
  1.944679732584E-13  1.359883690040E-13  9.471403454052E-14  6.569994694716E-14
  4.538713492723E-14  3.122455673405E-14  2.139114295409E-14  1.459231038076E-14
  9.911614065975E-15  6.703051994182E-15  4.513214991116E-15  3.025253389970E-15
  2.018722304222E-15  1.340932770409E-15  8.866030997787E-16  5.834709451069E-16
  3.821664948029E-16  2.491177712477E-16  1.616034313479E-16  1.043193690737E-16
  6.700732224147E-17  4.282492718691E-17  2.723089220175E-17  1.722627861641E-17
  1.084073160396E-17  6.786347461895E-18  4.225678805157E-18  2.617049584276E-18
  1.611960310011E-18  9.874046559545E-19  6.014583986101E-19  3.642976980390E-19
  2.193906579536E-19  1.313592937357E-19  7.819053486932E-20  4.626660464239E-20
  2.721260499401E-20  1.590853645846E-20  9.243067282306E-21  5.336978198532E-21
  3.062215652389E-21  0.000000000000E+00  0.000000000000E+00  0.000000000000E+00
  0.000000000000E+00  0.000000000000E+00  0.000000000000E+00  0.000000000000E+00
  0.000000000000E+00  0.000000000000E+00  0.000000000000E+00  0.000000000000E+00
  0.000000000000E+00  0.000000000000E+00  0.000000000000E+00  0.000000000000E+00
  0.000000000000E+00  0.000000000000E+00  0.000000000000E+00  0.000000000000E+00
  0.000000000000E+00
</data>
</radfunc>
</valence-charge>
<pseudocore-charge matching-radius="0.382578382038"
 number-of-continuous-derivatives="4">
<annotation model-charge-form="Teter function with specified parameters" />
<radfunc>
<data npts="290">
  1.567115606958E+02  1.566818626990E+02  1.565931062417E+02  1.564450994830E+02
  1.562394636826E+02  1.559693296979E+02  1.556254673520E+02  1.552322927308E+02
  1.547448481077E+02  1.542189144503E+02  1.536274424323E+02  1.529861683505E+02
  1.522133953169E+02  1.514089317347E+02  1.506079608417E+02  1.496886550153E+02
  1.486344019074E+02  1.476393774767E+02  1.465257634853E+02  1.452804856140E+02
  1.438893119563E+02  1.426610104259E+02  1.413210583991E+02  1.398605472646E+02
  1.382701175331E+02  1.365399949475E+02  1.346600437343E+02  1.331454931564E+02
  1.315363320328E+02  1.298280562936E+02  1.280161654501E+02  1.260962039066E+02
  1.240638093160E+02  1.219147686373E+02  1.196450825415E+02  1.172510387640E+02
  1.147292949326E+02  1.120769712836E+02  1.102350416976E+02  1.083335109860E+02
  1.063720058396E+02  1.043503196082E+02  1.022684299280E+02  1.001265170795E+02
  9.792498298790E+01  9.566447075341E+01  9.334588457446E+01  9.097040989369E+01
  8.853953356668E+01  8.605506381678E+01  8.351914970209E+01  8.093429978026E+01
  7.830339961517E+01  7.562972772634E+01  7.291696953855E+01  7.016922884651E+01
  6.739103626856E+01  6.458735412595E+01  6.176357715247E+01  5.892552841431E+01
  5.607944980540E+01  5.323198648113E+01  5.039016460659E+01  4.756136182744E+01
  4.475326992526E+01  4.197384919867E+01  3.923127421936E+01  3.787640168758E+01
  3.653387075156E+01  3.520473394982E+01  3.389004379721E+01  3.259085006549E+01
  3.130819693836E+01  3.004312004712E+01  2.879664339405E+01  2.756977617210E+01
  2.636350949064E+01  2.517881301876E+01  2.401663155850E+01  2.287788156246E+01
  2.176344761116E+01  2.067417886743E+01  1.961088552627E+01  1.857433528027E+01
  1.756524982193E+01  1.658430140565E+01  1.563210949327E+01  1.470923750837E+01
  1.381618972533E+01  1.295340832011E+01  1.212127061027E+01  1.132008651236E+01
  1.055009624477E+01  9.811468304223E+00  9.104297743695E+00  8.428604778891E+00
  7.784333749253E+00  7.171352458257E+00  6.589451915861E+00  6.038346503837E+00
  5.517674582115E+00  5.026999551265E+00  4.565811382829E+00  4.133528625373E+00
  3.729500889887E+00  3.353011813586E+00  3.003282496185E+00  2.679475397481E+00
  2.380698679579E+00  2.106010971383E+00  1.854426527154E+00  1.624920745096E+00
  1.416436006086E+00  1.227887787008E+00  1.058170997741E+00  9.061664858043E-01
  7.707476480728E-01  6.507870850656E-01  5.451632300340E-01  4.527668827207E-01
  3.725075762249E-01  3.033197050456E-01  2.441683431684E-01  1.940546830776E-01
  1.520210298776E-01  1.171552893206E-01  8.859489446295E-02  6.553012288651E-02
  4.720676485056E-02  3.292811229734E-02  2.205624917163E-02  1.401263486725E-02
  8.277984563880E-03  4.391462526035E-03  1.949216824258E-03  6.022961092153E-04
  5.400070307488E-05  5.673104292223E-05  4.084060906552E-04  9.485323974233E-04
  1.554010785929E-03  2.134771834479E-03  2.629333304656E-03  3.000372202621E-03
  3.230401226628E-03  3.317633935751E-03  3.272115170222E-03  3.112183247078E-03
  2.861318522892E-03  2.545419422902E-03  2.190532427009E-03  1.821047288287E-03
  1.458353497570E-03  1.119939283703E-03  8.189008393761E-04  5.638175461671E-04
  3.589392422247E-04  2.046244490496E-04  9.796425493125E-05  3.352541121389E-05
  4.148150802354E-06  1.739141495730E-06  1.800753314841E-05  4.510178849526E-05
  7.611631236268E-05  1.054491218152E-04  1.290041787425E-04  1.442437711553E-04
  1.501067527503E-04  1.468168952132E-04  1.356115767558E-04  1.184242068527E-04
  9.755406483436E-05  7.535472733450E-05  5.396731571299E-05  3.511794608358E-05
  1.999070329751E-05  9.178974532132E-06  2.709881979937E-06  1.296101147717E-07
  6.322667102007E-07  3.211990621597E-06  6.817523866954E-06  1.049033491378E-05
  1.347128642728E-05  1.526622898229E-05  1.566705342047E-05  1.473085172672E-05
  1.272514377541E-05  1.005097072774E-05  7.157590088006E-06  4.462358754577E-06
  2.287282813736E-06  8.200518834025E-07  1.027899573921E-07  0.000000000000E+00
  0.000000000000E+00  0.000000000000E+00  0.000000000000E+00  0.000000000000E+00
  0.000000000000E+00  0.000000000000E+00  0.000000000000E+00  0.000000000000E+00
  0.000000000000E+00  0.000000000000E+00  0.000000000000E+00  0.000000000000E+00
  0.000000000000E+00  0.000000000000E+00  0.000000000000E+00  0.000000000000E+00
  0.000000000000E+00  0.000000000000E+00  0.000000000000E+00  0.000000000000E+00
  0.000000000000E+00  0.000000000000E+00  0.000000000000E+00  0.000000000000E+00
  0.000000000000E+00  0.000000000000E+00  0.000000000000E+00  0.000000000000E+00
  0.000000000000E+00  0.000000000000E+00  0.000000000000E+00  0.000000000000E+00
  0.000000000000E+00  0.000000000000E+00  0.000000000000E+00  0.000000000000E+00
  0.000000000000E+00  0.000000000000E+00  0.000000000000E+00  0.000000000000E+00
  0.000000000000E+00  0.000000000000E+00  0.000000000000E+00  0.000000000000E+00
  0.000000000000E+00  0.000000000000E+00  0.000000000000E+00  0.000000000000E+00
  0.000000000000E+00  0.000000000000E+00  0.000000000000E+00  0.000000000000E+00
  0.000000000000E+00  0.000000000000E+00  0.000000000000E+00  0.000000000000E+00
  0.000000000000E+00  0.000000000000E+00  0.000000000000E+00  0.000000000000E+00
  0.000000000000E+00  0.000000000000E+00  0.000000000000E+00  0.000000000000E+00
  0.000000000000E+00  0.000000000000E+00  0.000000000000E+00  0.000000000000E+00
  0.000000000000E+00  0.000000000000E+00  0.000000000000E+00  0.000000000000E+00
  0.000000000000E+00  0.000000000000E+00  0.000000000000E+00  0.000000000000E+00
  0.000000000000E+00  0.000000000000E+00  0.000000000000E+00  0.000000000000E+00
  0.000000000000E+00  0.000000000000E+00  0.000000000000E+00  0.000000000000E+00
  0.000000000000E+00  0.000000000000E+00  0.000000000000E+00  0.000000000000E+00
  0.000000000000E+00  0.000000000000E+00  0.000000000000E+00  0.000000000000E+00
  0.000000000000E+00  0.000000000000E+00
</data>
</radfunc>
</pseudocore-charge>
<semilocal-potentials set="lj">
<slps n="3" l="s" j="0.5" rc="1.20240182436" eref="-4.06994480602">
<radfunc>
<data npts="290">
 -2.388037839605E+01 -2.388118896804E+01 -2.388361132851E+01 -2.388765039537E+01
 -2.389326139177E+01 -2.390063095655E+01 -2.391000970963E+01 -2.392073039104E+01
 -2.393401696899E+01 -2.394834694267E+01 -2.396445543841E+01 -2.398191156483E+01
 -2.400293500461E+01 -2.402480616248E+01 -2.404656747544E+01 -2.407152512888E+01
 -2.410012130916E+01 -2.412708580901E+01 -2.415723437257E+01 -2.419090941518E+01
 -2.422848096371E+01 -2.426160970148E+01 -2.429770117417E+01 -2.433698033025E+01
 -2.437968047516E+01 -2.442604142024E+01 -2.447630697243E+01 -2.451671570225E+01
 -2.455956043434E+01 -2.460494088491E+01 -2.465295295595E+01 -2.470368700887E+01
 -2.475722584948E+01 -2.481364239111E+01 -2.487299696070E+01 -2.493533421162E+01
 -2.500067960581E+01 -2.506903542818E+01 -2.511626718885E+01 -2.516481093859E+01
 -2.521464413648E+01 -2.526573629519E+01 -2.531804815342E+01 -2.537153079499E+01
 -2.542612471441E+01 -2.548175882884E+01 -2.553834943769E+01 -2.559579913121E+01
 -2.565399565071E+01 -2.571281070389E+01 -2.577209874008E+01 -2.583169569114E+01
 -2.589141768568E+01 -2.595105974536E+01 -2.601039447417E+01 -2.606917075302E+01
 -2.612711245439E+01 -2.618391719327E+01 -2.623925513328E+01 -2.629276786843E+01
 -2.634406740336E+01 -2.639273525665E+01 -2.643832171375E+01 -2.648034525744E+01
 -2.651829220537E+01 -2.655161658511E+01 -2.657974027830E+01 -2.659166251842E+01
 -2.660205346589E+01 -2.661083206787E+01 -2.661791540744E+01 -2.662321874862E+01
 -2.662665558790E+01 -2.662813771254E+01 -2.662757526610E+01 -2.662487682125E+01
 -2.661994946034E+01 -2.661269886391E+01 -2.660302940759E+01 -2.659084426749E+01
 -2.657604553465E+01 -2.655853433865E+01 -2.653821098091E+01 -2.651497507775E+01
 -2.648872571384E+01 -2.645936160609E+01 -2.642678127836E+01 -2.639088324733E+01
 -2.635156621961E+01 -2.630872930045E+01 -2.626227221404E+01 -2.621209553548E+01
 -2.615810093457E+01 -2.610019143097E+01 -2.603827166089E+01 -2.597224815458E+01
 -2.590202962441E+01 -2.582752726264E+01 -2.574865504828E+01 -2.566533006179E+01
 -2.557747280676E+01 -2.548500753692E+01 -2.538786258732E+01 -2.528597070776E+01
 -2.517926939712E+01 -2.506770123661E+01 -2.495121422024E+01 -2.482976208103E+01
 -2.470330461125E+01 -2.457180797542E+01 -2.443524501525E+01 -2.429359554568E+01
 -2.414684664200E+01 -2.399499291851E+01 -2.383803679965E+01 -2.367598878545E+01
 -2.350886771374E+01 -2.333670102258E+01 -2.315952501698E+01 -2.297738514531E+01
 -2.279033629137E+01 -2.259844308963E+01 -2.240178027184E+01 -2.220043305487E+01
 -2.199449758067E+01 -2.178408142095E+01 -2.156930416054E+01 -2.135029807542E+01
 -2.112720892305E+01 -2.090019686467E+01 -2.066943754151E+01 -2.043512332870E+01
 -2.019746479291E+01 -1.995669238164E+01 -1.971305837344E+01 -1.946683911943E+01
 -1.921833760672E+01 -1.896788637293E+01 -1.871585079883E+01 -1.846263280133E+01
 -1.820867494235E+01 -1.795446495899E+01 -1.770054070810E+01 -1.744749550127E+01
 -1.719598378673E+01 -1.694672711067E+01 -1.670052026354E+01 -1.645823748730E+01
 -1.622083858787E+01 -1.598937476541E+01 -1.576499394438E+01 -1.554894536665E+01
 -1.534258308402E+01 -1.514736817118E+01 -1.496487122087E+01 -1.479026244422E+01