Zn    ONCVPSP-3.3.0  r_core=   2.21501   2.21501   1.91959
30.0000     12.0000      180430    zatom,zion,pspd
8 -116133   2     4   600     0    pspcod,pspxc,lmax,lloc,mmax,r2well
5.99000000  5.00000000  0.00000000    rchrg fchrg qchrg
2     3     2     0    nproj
3     1           extension_switch
4     4     0    nprojso
0                         1.1396524494292D+00  4.9829510294228D+00
1  0.0000000000000D+00 -2.4887591987266D-11  1.0308059961162D-11
2  1.0000000000000D-02  3.2797158241061D-02  3.5916321917517D-03
3  2.0000000000000D-02  6.5471066248792D-02  7.2405252642411D-03
4  3.0000000000000D-02  9.7898953343431D-02  1.1003711473671D-02
5  4.0000000000000D-02  1.2995900617995D-01  1.4937766614714D-02
6  5.0000000000000D-02  1.6153084299065D-01  1.9098583755995D-02
7  6.0000000000000D-02  1.9249598253567D-01  2.3541149327801D-02
8  7.0000000000000D-02  2.2273830602643D-01  2.8319322334000D-02
9  8.0000000000000D-02  2.5214451031216D-01  3.3485617449823D-02
10  9.0000000000000D-02  2.8060455065034D-01  3.9090992754356D-02
11  1.0000000000000D-01  3.0801207141929D-01  4.5184642831200D-02
12  1.1000000000000D-01  3.3426482317318D-01  5.1813797953114D-02
13  1.2000000000000D-01  3.5926506448908D-01  5.9023530046199D-02
14  1.3000000000000D-01  3.8291994710897D-01  6.6856566106839D-02
15  1.4000000000000D-01  4.0514188293940D-01  7.5353109719862D-02
16  1.5000000000000D-01  4.2584889153604D-01  8.4550671299542D-02
17  1.6000000000000D-01  4.4496492676971D-01  9.4483907646107D-02
18  1.7000000000000D-01  4.6242018144483D-01  1.0518447137948D-01
19  1.8000000000000D-01  4.7815136871993D-01  1.1668087077915D-01
20  1.9000000000000D-01  4.9210197926280D-01  1.2899834052436D-01
21  2.0000000000000D-01  5.0422251315964D-01  1.4215872379256D-01
22  2.1000000000000D-01  5.1447068568821D-01  1.5618036613619D-01
23  2.2000000000000D-01  5.2281160615857D-01  1.7107802151829D-01
24  2.3000000000000D-01  5.2921792912225D-01  1.8686277084708D-01
25  2.4000000000000D-01  5.3366997734972D-01  2.0354195330752D-01
26  2.5000000000000D-01  5.3615583607847D-01  2.2111911074500D-01
27  2.6000000000000D-01  5.3667141813743D-01  2.3959394531240D-01
28  2.7000000000000D-01  5.3522049965929D-01  2.5896229054724D-01
29  2.8000000000000D-01  5.3181472619905D-01  2.7921609600010D-01
30  2.9000000000000D-01  5.2647358918469D-01  3.0034342548993D-01
31  3.0000000000000D-01  5.1922437273448D-01  3.2232846901554D-01
32  3.1000000000000D-01  5.1010207098337D-01  3.4515156830634D-01
33  3.2000000000000D-01  4.9914927616960D-01  3.6878925594902D-01
34  3.3000000000000D-01  4.8641603783988D-01  3.9321430798050D-01
35  3.4000000000000D-01  4.7195969363835D-01  4.1839580979159D-01
36  3.5000000000000D-01  4.5584467224955D-01  4.4429923514016D-01
37  3.6000000000000D-01  4.3814226916933D-01  4.7088653802761D-01
38  3.7000000000000D-01  4.1893039607875D-01  4.9811625714823D-01
39  3.8000000000000D-01  3.9829330469503D-01  5.2594363257743D-01
40  3.9000000000000D-01  3.7632128606966D-01  5.5432073432285D-01
41  4.0000000000000D-01  3.5311034639638D-01  5.8319660232056D-01
42  4.1000000000000D-01  3.2876186048111D-01  6.1251739741928D-01
43  4.2000000000000D-01  3.0338220411123D-01  6.4222656285671D-01
44  4.3000000000000D-01  2.7708236664270D-01  6.7226499569538D-01
45  4.4000000000000D-01  2.4997754520004D-01  7.0257122765023D-01
46  4.5000000000000D-01  2.2218672195600D-01  7.3308161470708D-01
47  4.6000000000000D-01  1.9383222602437D-01  7.6373053489943D-01
48  4.7000000000000D-01  1.6503928156055D-01  7.9445059358234D-01
49  4.8000000000000D-01  1.3593554372030D-01  8.2517283551467D-01
50  4.9000000000000D-01  1.0665062417652D-01  8.5582696303657D-01
51  5.0000000000000D-01  7.7315607937947D-02  8.8634155960658D-01
52  5.1000000000000D-01  4.8062563250814D-02  9.1664431794295D-01
53  5.2000000000000D-01  1.9024046395546D-02  9.4666227199656D-01
54  5.3000000000000D-01 -9.6673967849580D-03  9.7632203196798D-01
55  5.4000000000000D-01 -3.7879730771339D-02  1.0055500215695D+00
56  5.5000000000000D-01 -6.5481929803080D-02  1.0342727167235D+00
57  5.6000000000000D-01 -9.2344474994033D-02  1.0624168848823D+00
58  5.7000000000000D-01 -1.1833984726220D-01  1.0899098241513D+00
59  5.8000000000000D-01 -1.4334301421760D-01  1.1166796013952D+00
60  5.9000000000000D-01 -1.6723190916907D-01  1.1426552885116D+00
61  6.0000000000000D-01 -1.8988790043460D-01  1.1677671960582D+00
62  6.1000000000000D-01 -2.1119624917067D-01  1.1919471034313D+00
63  6.2000000000000D-01 -2.3104655397350D-01  1.2151284848000D+00
64  6.3000000000000D-01 -2.4933318054936D-01  1.2372467300178D+00
65  6.4000000000000D-01 -2.6595567480241D-01  1.2582393597471D+00
66  6.5000000000000D-01 -2.8081915774510D-01  1.2780462340519D+00
67  6.6000000000000D-01 -2.9383470070041D-01  1.2966097537371D+00
68  6.7000000000000D-01 -3.0491967933458D-01  1.3138750537343D+00
69  6.8000000000000D-01 -3.1399810513422D-01  1.3297901878639D+00
70  6.9000000000000D-01 -3.2100093302312D-01  1.3443063043315D+00
71  7.0000000000000D-01 -3.2586634390023D-01  1.3573778113471D+00
72  7.1000000000000D-01 -3.2854000097125D-01  1.3689625322926D+00
73  7.2000000000000D-01 -3.2897527884278D-01  1.3790218498959D+00
74  7.3000000000000D-01 -3.2713346444813D-01  1.3875208389106D+00
75  7.4000000000000D-01 -3.2298392897791D-01  1.3944283868395D+00
76  7.5000000000000D-01 -3.1650427009674D-01  1.3997173022810D+00
77  7.6000000000000D-01 -3.0768042383840D-01  1.4033644105235D+00
78  7.7000000000000D-01 -2.9650674568543D-01  1.4053506360539D+00
79  7.8000000000000D-01 -2.8298606045574D-01  1.4056610716963D+00
80  7.9000000000000D-01 -2.6712968073679D-01  1.4042850341425D+00
81  8.0000000000000D-01 -2.4895739372742D-01  1.4012161056833D+00
82  8.1000000000000D-01 -2.2849741646831D-01  1.3964521620002D+00
83  8.2000000000000D-01 -2.0578631956302D-01  1.3899953859262D+00
84  8.3000000000000D-01 -1.8086891961309D-01  1.3818522671344D+00
85  8.4000000000000D-01 -1.5379814071134D-01  1.3720335877626D+00
86  8.5000000000000D-01 -1.2463484545770D-01  1.3605543940332D+00
87  8.6000000000000D-01 -9.3447636080488D-02  1.3474339539783D+00
88  8.7000000000000D-01 -6.0312626363039D-02  1.3326957014287D+00
89  8.8000000000000D-01 -2.5313185189927D-02  1.3163671664741D+00
90  8.9000000000000D-01  1.1460347360953D-02  1.2984798926531D+00
91  9.0000000000000D-01  4.9910970345720D-02  1.2790693411760D+00
92  9.1000000000000D-01  8.9935357561617D-02  1.2581747825321D+00
93  9.2000000000000D-01  1.3142421719338D-01  1.2358391758775D+00
94  9.3000000000000D-01  1.7426267416215D-01  1.2121090366437D+00
95  9.4000000000000D-01  2.1833067374881D-01  1.1870342928487D+00
96  9.5000000000000D-01  2.6350340497766D-01  1.1606681306345D+00
97  9.6000000000000D-01  3.0965174216609D-01  1.1330668295902D+00
98  9.7000000000000D-01  3.5664270297109D-01  1.1042895884607D+00
99  9.8000000000000D-01  4.0433992119692D-01  1.0743983418699D+00
100  9.9000000000000D-01  4.5260413256541D-01  1.0434575687246D+00
101  1.0000000000000D+00  5.0129367159728D-01  1.0115340929885D+00
102  1.0100000000000D+00  5.5026497770519D-01  9.7869687754904D-01
103  1.0200000000000D+00  5.9937310856014D-01  9.4501681191692D-01
104  1.0300000000000D+00  6.4847225876078D-01  9.1056649452428D-01
105  1.0400000000000D+00  6.9741628181061D-01  8.7542001040325D-01
106  1.0500000000000D+00  7.4605921339295D-01  8.3965270504143D-01
107  1.0600000000000D+00  7.9425579392386D-01  8.0334095522446D-01
108  1.0700000000000D+00  8.4186198836437D-01  7.6656193768335D-01
109  1.0800000000000D+00  8.8873550128060D-01  7.2939339637078D-01
110  1.0900000000000D+00  9.3473628515917D-01  6.9191340919233D-01
111  1.1000000000000D+00  9.7972704000378D-01  6.5420015501920D-01
112  1.1100000000000D+00  1.0235737022780D+00  6.1633168180416D-01
113  1.1200000000000D+00  1.0661459212941D+00  5.7838567661615D-01
114  1.1300000000000D+00  1.1073175212038D+00  5.4043923839745D-01
115  1.1400000000000D+00  1.1469669467894D+00  5.0256865423638D-01
116  1.1500000000000D+00  1.1849776913289D+00  4.6484917993073D-01
117  1.1600000000000D+00  1.2212387048734D+00  4.2735482559814D-01
118  1.1700000000000D+00  1.2556447813625D+00  3.9015814706418D-01
119  1.1800000000000D+00  1.2880969230614D+00  3.5333004374275D-01
120  1.1900000000000D+00  1.3185026809234D+00  3.1693956368609D-01
121  1.2000000000000D+00  1.3467764695642D+00  2.8105371645486D-01
122  1.2100000000000D+00  1.3728398556430D+00  2.4573729442464D-01
123  1.2200000000000D+00  1.3966218185220D+00  2.1105270311897D-01
124  1.2300000000000D+00  1.4180589822355D+00  1.7705980110737D-01
125  1.2400000000000D+00  1.4370958179078D+00  1.4381574996698D-01
126  1.2500000000000D+00  1.4536848158051D+00  1.1137487479373D-01
127  1.2600000000000D+00  1.4677866264365D+00  7.9788535666683D-02
128  1.2700000000000D+00  1.4793701702114D+00  4.9105010436765D-02
129  1.2800000000000D+00  1.4884127152019D+00  1.9369389196324D-02
130  1.2900000000000D+00  1.4948999228131D+00 -9.3765193056229D-03
131  1.3000000000000D+00  1.4988258612727D+00 -3.7094269078589D-02
132  1.3100000000000D+00  1.5001929868479D+00 -6.3748845910441D-02
133  1.3200000000000D+00  1.4990120930208D+00 -8.9308723886174D-02
134  1.3300000000000D+00  1.4953022279110D+00 -1.1374590932432D-01
135  1.3400000000000D+00  1.4890905802282D+00 -1.3703597204494D-01
136  1.3500000000000D+00  1.4804123344303D+00 -1.5915806403510D-01
137  1.3600000000000D+00  1.4693104956795D+00 -1.8009492554825D-01
138  1.3700000000000D+00  1.4558356853242D+00 -1.9983287872278D-01
139  1.3800000000000D+00  1.4400459079509D+00 -2.1836180893597D-01
140  1.3900000000000D+00  1.4220062908656D+00 -2.3567513403262D-01
141  1.4000000000000D+00  1.4017887972229D+00 -2.5176976171380D-01
142  1.4100000000000D+00  1.3794719140762D+00 -2.6664603539835D-01
143  1.4200000000000D+00  1.3551403165300D+00 -2.8030766882587D-01
144  1.4300000000000D+00  1.3288845096404D+00 -2.9276166987292D-01
145  1.4400000000000D+00  1.3008004494015D+00 -3.0401825392057D-01
146  1.4500000000000D+00  1.2709891445262D+00 -3.1409074727164D-01
147  1.4600000000000D+00  1.2395562407126D+00 -3.2299548111842D-01
148  1.4700000000000D+00  1.2066115890415D+00 -3.3075167652780D-01
149  1.4800000000000D+00  1.1722688004881D+00 -3.3738132108928D-01
150  1.4900000000000D+00  1.1366447882298D+00 -3.4290903770867D-01
151  1.5000000000000D+00  1.0998592998229D+00 -3.4736194624252D-01
152  1.5100000000000D+00  1.0620344410867D+00 -3.5076951854602D-01
153  1.5200000000000D+00  1.0232941937378D+00 -3.5316342760979D-01
154  1.5300000000000D+00  9.8376392873598D-01 -3.5457739145363D-01
155  1.5400000000000D+00  9.4356991738689D-01 -3.5504701243757D-01
156  1.5500000000000D+00  9.0283884215444D-01 -3.5460961270866D-01
157  1.5600000000000D+00  8.6169730928826D-01 -3.5330406645438D-01
158  1.5700000000000D+00  8.2027136511540D-01 -3.5117062968174D-01
159  1.5800000000000D+00  7.7868601813568D-01 -3.4825076822098D-01
160  1.5900000000000D+00  7.3706476867146D-01 -3.4458698464653D-01
161  1.6000000000000D+00  6.9552914813900D-01 -3.4022264482520D-01
162  1.6100000000000D+00  6.5419826964470D-01 -3.3520180476415D-01
163  1.6200000000000D+00  6.1318839178464D-01 -3.2956903844255D-01
164  1.6300000000000D+00  5.7261249734706D-01 -3.2336926729364D-01
165  1.6400000000000D+00  5.3257988850972D-01 -3.1664759195784D-01
166  1.6500000000000D+00  4.9319580025401D-01 -3.0944912697941D-01
167  1.6600000000000D+00  4.5456103322980D-01 -3.0181883897408D-01
168  1.6700000000000D+00  4.1677160781556D-01 -2.9380138894924D-01
169  1.6800000000000D+00  3.7991844021399D-01 -2.8544097919241D-01
170  1.6900000000000D+00  3.4408704231758D-01 -2.7678120541165D-01
171  1.7000000000000D+00  3.0935724579791D-01 -2.6786491442692D-01
172  1.7100000000000D+00  2.7580295207142D-01 -2.5873406807816D-01
173  1.7200000000000D+00  2.4349190826551D-01 -2.4942961354467D-01
174  1.7300000000000D+00  2.1248551064102D-01 -2.3999136068776D-01
175  1.7400000000000D+00  1.8283863537511D-01 -2.3045786653834D-01
176  1.7500000000000D+00  1.5459949780244D-01 -2.2086632743495D-01
177  1.7600000000000D+00  1.2780953996462D-01 -2.1125247891268D-01
178  1.7700000000000D+00  1.0250334700166D-01 -2.0165050367215D-01
179  1.7800000000000D+00  7.8708592396262D-02 -1.9209294777898D-01
180  1.7900000000000D+00  5.6446011802668D-02 -1.8261064516271D-01
181  1.8000000000000D+00  3.5729405876123D-02 -1.7323265070024D-01
182  1.8100000000000D+00  1.6565670791792D-02 -1.6398618160373D-01
183  1.8200000000000D+00 -1.0451424904472D-03 -1.5489656761884D-01
184  1.8300000000000D+00 -1.7109742762173D-02 -1.4598720932702D-01
185  1.8400000000000D+00 -3.1641485058260D-02 -1.3727954533975D-01
186  1.8500000000000D+00 -4.4660232880673D-02 -1.2879302723952D-01
187  1.8600000000000D+00 -5.6192195885532D-02 -1.2054510250029D-01
188  1.8700000000000D+00 -6.6269734217582D-02 -1.1255120876379D-01
189  1.8800000000000D+00 -7.4931171515394D-02 -1.0482476426308D-01
190  1.8900000000000D+00 -8.2220516773088D-02 -9.7377191832082D-02
191  1.9000000000000D+00 -8.8187222457639D-02 -9.0217928007150D-02
192  1.9100000000000D+00 -9.2886008801166D-02 -8.3354408803401D-02
193  1.9200000000000D+00 -9.6376575738369D-02 -7.6792097889286D-02
194  1.9300000000000D+00 -9.8722933586986D-02 -7.0534650805463D-02
195  1.9400000000000D+00 -9.9992871469693D-02 -6.4584026652597D-02
196  1.9500000000000D+00 -1.0025739801603D-01 -5.8940633147874D-02
197  1.9600000000000D+00 -9.9589986275047D-02 -5.3603536655111D-02
198  1.9700000000000D+00 -9.8066209586692D-02 -4.8570536669055D-02
199  1.9800000000000D+00 -9.5763415890223D-02 -4.3838230730211D-02
200  1.9900000000000D+00 -9.2760343027455D-02 -3.9402101533729D-02
201  2.0000000000000D+00 -8.9136652555797D-02 -3.5256631274819D-02
202  2.0100000000000D+00 -8.4972551172747D-02 -3.1395388667068D-02
203  2.0200000000000D+00 -8.0348370812998D-02 -2.7811131412601D-02
204  2.0300000000000D+00 -7.5344166268833D-02 -2.4495904149229D-02
205  2.0400000000000D+00 -7.0039315706390D-02 -2.1441137031819D-02
206  2.0500000000000D+00 -6.4512128031253D-02 -1.8637743589866D-02
207  2.0600000000000D+00 -5.8839458626798D-02 -1.6076217362580D-02
208  2.0700000000000D+00 -5.3096336724710D-02 -1.3746726305417D-02
209  2.0800000000000D+00 -4.7355603421949D-02 -1.1639205231528D-02
210  2.0900000000000D+00 -4.1687565192938D-02 -9.7434447724481D-03
211  2.1000000000000D+00 -3.6159661931639D-02 -8.0491771404389D-03
212  2.1100000000000D+00 -3.0836151622696D-02 -6.5461580193265D-03
213  2.1200000000000D+00 -2.5777815133202D-02 -5.2242434646042D-03
214  2.1300000000000D+00 -2.1041677965684D-02 -4.0734628191645D-03
215  2.1400000000000D+00 -1.6682340353415D-02 -3.0842447848971D-03
216  2.1500000000000D+00 -1.2748829066499D-02 -2.2471859272631D-03
217  2.1600000000000D+00 -9.2771746283084D-03 -1.5523813248085D-03
218  2.1700000000000D+00 -6.2925214198467D-03 -9.9003825859253D-04
219  2.1800000000000D+00 -3.8666029701376D-03 -5.5507021721288D-04
220  2.1900000000000D+00 -2.0632760642604D-03 -2.4241262597949D-04
221  2.2000000000000D+00 -9.0481844071010D-04 -4.3527094758205D-05
222  2.2100000000000D+00 -2.6533561911036D-04  5.6957439465690D-05
223  2.2200000000000D+00  4.1038524710993D-06  7.7289112709581D-05
224  2.2300000000000D+00  5.4253562393029D-05  4.7674472275881D-05
225  2.2400000000000D+00  9.0894722615834D-06  5.7954353157921D-06
226  2.2500000000000D+00 -2.1353157669297D-05 -1.2453556675536D-05
227  2.2600000000000D+00 -1.8871744886124D-05 -9.9968531572310D-06
228  2.2700000000000D+00  7.5258192796529D-07  6.0566702168802D-07
229  2.2800000000000D+00  3.7548102153790D-06  2.8078443173070D-06
230  2.2900000000000D+00  2.2615658246460D-06  1.6023617410649D-06
231  2.3000000000000D+00  1.4394067815082D-07 -1.1509061089174D-07
232  2.3100000000000D+00  2.6904526674974D-07 -2.1512045452026D-07
233  2.3200000000000D+00  9.2991696756831D-08 -7.4353346983604D-08
234  2.3300000000000D+00  0.0000000000000D+00  0.0000000000000D+00
235  2.3400000000000D+00  0.0000000000000D+00  0.0000000000000D+00
236  2.3500000000000D+00  0.0000000000000D+00  0.0000000000000D+00
237  2.3600000000000D+00  0.0000000000000D+00  0.0000000000000D+00
238  2.3700000000000D+00  0.0000000000000D+00  0.0000000000000D+00
239  2.3800000000000D+00  0.0000000000000D+00  0.0000000000000D+00
240  2.3900000000000D+00  0.0000000000000D+00  0.0000000000000D+00
241  2.4000000000000D+00  0.0000000000000D+00  0.0000000000000D+00
242  2.4100000000000D+00  0.0000000000000D+00  0.0000000000000D+00
243  2.4200000000000D+00  0.0000000000000D+00  0.0000000000000D+00
244  2.4300000000000D+00  0.0000000000000D+00  0.0000000000000D+00
245  2.4400000000000D+00  0.0000000000000D+00  0.0000000000000D+00
246  2.4500000000000D+00  0.0000000000000D+00  0.0000000000000D+00
247  2.4600000000000D+00  0.0000000000000D+00  0.0000000000000D+00
248  2.4700000000000D+00  0.0000000000000D+00  0.0000000000000D+00
249  2.4800000000000D+00  0.0000000000000D+00  0.0000000000000D+00
250  2.4900000000000D+00  0.0000000000000D+00  0.0000000000000D+00
251  2.5000000000000D+00  0.0000000000000D+00  0.0000000000000D+00
252  2.5100000000000D+00  0.0000000000000D+00  0.0000000000000D+00
253  2.5200000000000D+00  0.0000000000000D+00  0.0000000000000D+00
254  2.5300000000000D+00  0.0000000000000D+00  0.0000000000000D+00
255  2.5400000000000D+00  0.0000000000000D+00  0.0000000000000D+00
256  2.5500000000000D+00  0.0000000000000D+00  0.0000000000000D+00
257  2.5600000000000D+00  0.0000000000000D+00  0.0000000000000D+00
258  2.5700000000000D+00  0.0000000000000D+00  0.0000000000000D+00
259  2.5800000000000D+00  0.0000000000000D+00  0.0000000000000D+00
260  2.5900000000000D+00  0.0000000000000D+00  0.0000000000000D+00
261  2.6000000000000D+00  0.0000000000000D+00  0.0000000000000D+00
262  2.6100000000000D+00  0.0000000000000D+00  0.0000000000000D+00
263  2.6200000000000D+00  0.0000000000000D+00  0.0000000000000D+00
264  2.6300000000000D+00  0.0000000000000D+00  0.0000000000000D+00
265  2.6400000000000D+00  0.0000000000000D+00  0.0000000000000D+00
266  2.6500000000000D+00  0.0000000000000D+00  0.0000000000000D+00
267  2.6600000000000D+00  0.0000000000000D+00  0.0000000000000D+00
268  2.6700000000000D+00  0.0000000000000D+00  0.0000000000000D+00
269  2.6800000000000D+00  0.0000000000000D+00  0.0000000000000D+00
270  2.6900000000000D+00  0.0000000000000D+00  0.0000000000000D+00
271  2.7000000000000D+00  0.0000000000000D+00  0.0000000000000D+00
272  2.7100000000000D+00  0.0000000000000D+00  0.0000000000000D+00
273  2.7200000000000D+00  0.0000000000000D+00  0.0000000000000D+00
274  2.7300000000000D+00  0.0000000000000D+00  0.0000000000000D+00
275  2.7400000000000D+00  0.0000000000000D+00  0.0000000000000D+00
276  2.7500000000000D+00  0.0000000000000D+00  0.0000000000000D+00
277  2.7600000000000D+00  0.0000000000000D+00  0.0000000000000D+00
278  2.7700000000000D+00  0.0000000000000D+00  0.0000000000000D+00
279  2.7800000000000D+00  0.0000000000000D+00  0.0000000000000D+00
280  2.7900000000000D+00  0.0000000000000D+00  0.0000000000000D+00
281  2.8000000000000D+00  0.0000000000000D+00  0.0000000000000D+00
282  2.8100000000000D+00  0.0000000000000D+00  0.0000000000000D+00
283  2.8200000000000D+00  0.0000000000000D+00  0.0000000000000D+00
284  2.8300000000000D+00  0.0000000000000D+00  0.0000000000000D+00
285  2.8400000000000D+00  0.0000000000000D+00  0.0000000000000D+00
286  2.8500000000000D+00  0.0000000000000D+00  0.0000000000000D+00
287  2.8600000000000D+00  0.0000000000000D+00  0.0000000000000D+00
288  2.8700000000000D+00  0.0000000000000D+00  0.0000000000000D+00
289  2.8800000000000D+00  0.0000000000000D+00  0.0000000000000D+00
290  2.8900000000000D+00  0.0000000000000D+00  0.0000000000000D+00
291  2.9000000000000D+00  0.0000000000000D+00  0.0000000000000D+00
292  2.9100000000000D+00  0.0000000000000D+00  0.0000000000000D+00
293  2.9200000000000D+00  0.0000000000000D+00  0.0000000000000D+00
294  2.9300000000000D+00  0.0000000000000D+00  0.0000000000000D+00
295  2.9400000000000D+00  0.0000000000000D+00  0.0000000000000D+00
296  2.9500000000000D+00  0.0000000000000D+00  0.0000000000000D+00
297  2.9600000000000D+00  0.0000000000000D+00  0.0000000000000D+00
298  2.9700000000000D+00  0.0000000000000D+00  0.0000000000000D+00
299  2.9800000000000D+00  0.0000000000000D+00  0.0000000000000D+00
300  2.9900000000000D+00  0.0000000000000D+00  0.0000000000000D+00
301  3.0000000000000D+00  0.0000000000000D+00  0.0000000000000D+00
302  3.0100000000000D+00  0.0000000000000D+00  0.0000000000000D+00
303  3.0200000000000D+00  0.0000000000000D+00  0.0000000000000D+00
304  3.0300000000000D+00  0.0000000000000D+00  0.0000000000000D+00
305  3.0400000000000D+00  0.0000000000000D+00  0.0000000000000D+00
306  3.0500000000000D+00  0.0000000000000D+00  0.0000000000000D+00
307  3.0600000000000D+00  0.0000000000000D+00  0.0000000000000D+00
308  3.0700000000000D+00  0.0000000000000D+00  0.0000000000000D+00
309  3.0800000000000D+00  0.0000000000000D+00  0.0000000000000D+00
310  3.0900000000000D+00  0.0000000000000D+00  0.0000000000000D+00
311  3.1000000000000D+00  0.0000000000000D+00  0.0000000000000D+00
312  3.1100000000000D+00  0.0000000000000D+00  0.0000000000000D+00
313  3.1200000000000D+00  0.0000000000000D+00  0.0000000000000D+00
314  3.1300000000000D+00  0.0000000000000D+00  0.0000000000000D+00
315  3.1400000000000D+00  0.0000000000000D+00  0.0000000000000D+00
316  3.1500000000000D+00  0.0000000000000D+00  0.0000000000000D+00
317  3.1600000000000D+00  0.0000000000000D+00  0.0000000000000D+00
318  3.1700000000000D+00  0.0000000000000D+00  0.0000000000000D+00
319  3.1800000000000D+00  0.0000000000000D+00  0.0000000000000D+00
320  3.1900000000000D+00  0.0000000000000D+00  0.0000000000000D+00
321  3.2000000000000D+00  0.0000000000000D+00  0.0000000000000D+00
322  3.2100000000000D+00  0.0000000000000D+00  0.0000000000000D+00
323  3.2200000000000D+00  0.0000000000000D+00  0.0000000000000D+00
324  3.2300000000000D+00  0.0000000000000D+00  0.0000000000000D+00
325  3.2400000000000D+00  0.0000000000000D+00  0.0000000000000D+00
326  3.2500000000000D+00  0.0000000000000D+00  0.0000000000000D+00
327  3.2600000000000D+00  0.0000000000000D+00  0.0000000000000D+00
328  3.2700000000000D+00  0.0000000000000D+00  0.0000000000000D+00
329  3.2800000000000D+00  0.0000000000000D+00  0.0000000000000D+00
330  3.2900000000000D+00  0.0000000000000D+00  0.0000000000000D+00
331  3.3000000000000D+00  0.0000000000000D+00  0.0000000000000D+00
332  3.3100000000000D+00  0.0000000000000D+00  0.0000000000000D+00
333  3.3200000000000D+00  0.0000000000000D+00  0.0000000000000D+00
334  3.3300000000000D+00  0.0000000000000D+00  0.0000000000000D+00
335  3.3400000000000D+00  0.0000000000000D+00  0.0000000000000D+00
336  3.3500000000000D+00  0.0000000000000D+00  0.0000000000000D+00
337  3.3600000000000D+00  0.0000000000000D+00  0.0000000000000D+00
338  3.3700000000000D+00  0.0000000000000D+00  0.0000000000000D+00
339  3.3800000000000D+00  0.0000000000000D+00  0.0000000000000D+00
340  3.3900000000000D+00  0.0000000000000D+00  0.0000000000000D+00
341  3.4000000000000D+00  0.0000000000000D+00  0.0000000000000D+00
342  3.4100000000000D+00  0.0000000000000D+00  0.0000000000000D+00
343  3.4200000000000D+00  0.0000000000000D+00  0.0000000000000D+00
344  3.4300000000000D+00  0.0000000000000D+00  0.0000000000000D+00
345  3.4400000000000D+00  0.0000000000000D+00  0.0000000000000D+00
346  3.4500000000000D+00  0.0000000000000D+00  0.0000000000000D+00
347  3.4600000000000D+00  0.0000000000000D+00  0.0000000000000D+00
348  3.4700000000000D+00  0.0000000000000D+00  0.0000000000000D+00
349  3.4800000000000D+00  0.0000000000000D+00  0.0000000000000D+00
350  3.4900000000000D+00  0.0000000000000D+00  0.0000000000000D+00
351  3.5000000000000D+00  0.0000000000000D+00  0.0000000000000D+00
352  3.5100000000000D+00  0.0000000000000D+00  0.0000000000000D+00
353  3.5200000000000D+00  0.0000000000000D+00  0.0000000000000D+00
354  3.5300000000000D+00  0.0000000000000D+00  0.0000000000000D+00
355  3.5400000000000D+00  0.0000000000000D+00  0.0000000000000D+00
356  3.5500000000000D+00  0.0000000000000D+00  0.0000000000000D+00
357  3.5600000000000D+00  0.0000000000000D+00  0.0000000000000D+00
358  3.5700000000000D+00  0.0000000000000D+00  0.0000000000000D+00
359  3.5800000000000D+00  0.0000000000000D+00  0.0000000000000D+00
360  3.5900000000000D+00  0.0000000000000D+00  0.0000000000000D+00
361  3.6000000000000D+00  0.0000000000000D+00  0.0000000000000D+00
362  3.6100000000000D+00  0.0000000000000D+00  0.0000000000000D+00
363  3.6200000000000D+00  0.0000000000000D+00  0.0000000000000D+00
364  3.6300000000000D+00  0.0000000000000D+00  0.0000000000000D+00
365  3.6400000000000D+00  0.0000000000000D+00  0.0000000000000D+00
366  3.6500000000000D+00  0.0000000000000D+00  0.0000000000000D+00
367  3.6600000000000D+00  0.0000000000000D+00  0.0000000000000D+00
368  3.6700000000000D+00  0.0000000000000D+00  0.0000000000000D+00
369  3.6800000000000D+00  0.0000000000000D+00  0.0000000000000D+00
370  3.6900000000000D+00  0.0000000000000D+00  0.0000000000000D+00
371  3.7000000000000D+00  0.0000000000000D+00  0.0000000000000D+00
372  3.7100000000000D+00  0.0000000000000D+00  0.0000000000000D+00
373  3.7200000000000D+00  0.0000000000000D+00  0.0000000000000D+00
374  3.7300000000000D+00  0.0000000000000D+00  0.0000000000000D+00
375  3.7400000000000D+00  0.0000000000000D+00  0.0000000000000D+00
376  3.7500000000000D+00  0.0000000000000D+00  0.0000000000000D+00
377  3.7600000000000D+00  0.0000000000000D+00  0.0000000000000D+00
378  3.7700000000000D+00  0.0000000000000D+00  0.0000000000000D+00
379  3.7800000000000D+00  0.0000000000000D+00  0.0000000000000D+00
380  3.7900000000000D+00  0.0000000000000D+00  0.0000000000000D+00
381  3.8000000000000D+00  0.0000000000000D+00  0.0000000000000D+00
382  3.8100000000000D+00  0.0000000000000D+00  0.0000000000000D+00
383  3.8200000000000D+00  0.0000000000000D+00  0.0000000000000D+00
384  3.8300000000000D+00  0.0000000000000D+00  0.0000000000000D+00
385  3.8400000000000D+00  0.0000000000000D+00  0.0000000000000D+00
386  3.8500000000000D+00  0.0000000000000D+00  0.0000000000000D+00
387  3.8600000000000D+00  0.0000000000000D+00  0.0000000000000D+00
388  3.8700000000000D+00  0.0000000000000D+00  0.0000000000000D+00
389  3.8800000000000D+00  0.0000000000000D+00  0.0000000000000D+00
390  3.8900000000000D+00  0.0000000000000D+00  0.0000000000000D+00
391  3.9000000000000D+00  0.0000000000000D+00  0.0000000000000D+00
392  3.9100000000000D+00  0.0000000000000D+00  0.0000000000000D+00
393  3.9200000000000D+00  0.0000000000000D+00  0.0000000000000D+00
394  3.9300000000000D+00  0.0000000000000D+00  0.0000000000000D+00
395  3.9400000000000D+00  0.0000000000000D+00  0.0000000000000D+00
396  3.9500000000000D+00  0.0000000000000D+00  0.0000000000000D+00
397  3.9600000000000D+00  0.0000000000000D+00  0.0000000000000D+00
398  3.9700000000000D+00  0.0000000000000D+00  0.0000000000000D+00
399  3.9800000000000D+00  0.0000000000000D+00  0.0000000000000D+00
400  3.9900000000000D+00  0.0000000000000D+00  0.0000000000000D+00
401  4.0000000000000D+00  0.0000000000000D+00  0.0000000000000D+00
402  4.0100000000000D+00  0.0000000000000D+00  0.0000000000000D+00
403  4.0200000000000D+00  0.0000000000000D+00  0.0000000000000D+00
404  4.0300000000000D+00  0.0000000000000D+00  0.0000000000000D+00
405  4.0400000000000D+00  0.0000000000000D+00  0.0000000000000D+00
406  4.0500000000000D+00  0.0000000000000D+00  0.0000000000000D+00
407  4.0600000000000D+00  0.0000000000000D+00  0.0000000000000D+00
408  4.0700000000000D+00  0.0000000000000D+00  0.0000000000000D+00
409  4.0800000000000D+00  0.0000000000000D+00  0.0000000000000D+00
410  4.0900000000000D+00  0.0000000000000D+00  0.0000000000000D+00
411  4.1000000000000D+00  0.0000000000000D+00  0.0000000000000D+00
412  4.1100000000000D+00  0.0000000000000D+00  0.0000000000000D+00
413  4.1200000000000D+00  0.0000000000000D+00  0.0000000000000D+00
414  4.1300000000000D+00  0.0000000000000D+00  0.0000000000000D+00
415  4.1400000000000D+00  0.0000000000000D+00  0.0000000000000D+00
416  4.1500000000000D+00  0.0000000000000D+00  0.0000000000000D+00
417  4.1600000000000D+00  0.0000000000000D+00  0.0000000000000D+00
418  4.1700000000000D+00  0.0000000000000D+00  0.0000000000000D+00
419  4.1800000000000D+00  0.0000000000000D+00  0.0000000000000D+00
420  4.1900000000000D+00  0.0000000000000D+00  0.0000000000000D+00
421  4.2000000000000D+00  0.0000000000000D+00  0.0000000000000D+00
422  4.2100000000000D+00  0.0000000000000D+00  0.0000000000000D+00
423  4.2200000000000D+00  0.0000000000000D+00  0.0000000000000D+00
424  4.2300000000000D+00  0.0000000000000D+00  0.0000000000000D+00
425  4.2400000000000D+00  0.0000000000000D+00  0.0000000000000D+00
426  4.2500000000000D+00  0.0000000000000D+00  0.0000000000000D+00
427  4.2600000000000D+00  0.0000000000000D+00  0.0000000000000D+00
428  4.2700000000000D+00  0.0000000000000D+00  0.0000000000000D+00
429  4.2800000000000D+00  0.0000000000000D+00  0.0000000000000D+00
430  4.2900000000000D+00  0.0000000000000D+00  0.0000000000000D+00
431  4.3000000000000D+00  0.0000000000000D+00  0.0000000000000D+00
432  4.3100000000000D+00  0.0000000000000D+00  0.0000000000000D+00
433  4.3200000000000D+00  0.0000000000000D+00  0.0000000000000D+00
434  4.3300000000000D+00  0.0000000000000D+00  0.0000000000000D+00
435  4.3400000000000D+00  0.0000000000000D+00  0.0000000000000D+00
436  4.3500000000000D+00  0.0000000000000D+00  0.0000000000000D+00
437  4.3600000000000D+00  0.0000000000000D+00  0.0000000000000D+00
438  4.3700000000000D+00  0.0000000000000D+00  0.0000000000000D+00
439  4.3800000000000D+00  0.0000000000000D+00  0.0000000000000D+00
440  4.3900000000000D+00  0.0000000000000D+00  0.0000000000000D+00
441  4.4000000000000D+00  0.0000000000000D+00  0.0000000000000D+00
442  4.4100000000000D+00  0.0000000000000D+00  0.0000000000000D+00
443  4.4200000000000D+00  0.0000000000000D+00  0.0000000000000D+00