<?xml version="1.0" encoding="UTF-8" ?>
<psml version="1.1" energy_unit="hartree" length_unit="bohr"
 uuid="ce053280-53a0-11e8-5743-184dd02c5c9d"
 xmlns="http://esl.cecam.org/PSML/ns/1.1">
<provenance creator="ONCVPSP-3.3.0+psml-3.3.0-73 (fully-relativistic)"
 date="2018-05-09">
<annotation action="semilocal-pseudopotential-generation"
 action-cont="projectors-generation" />
<input-file name="oncvpsp-input">
<![CDATA[# atsym z nc nv iexc psfile
Zn 30 3 4 -116133 upf
# n l f
1 0 2.0
2 0 2.0
2 1 6.0
3 0 2.0
3 1 6.0
3 2 10.0
4 0 2.0
# lmax
2
# l rc ep ncon nbas qcut
0 1.35 0.0 4 9 8.8
1 1.65 0.0 4 9 9.0
2 1.85 0.0 4 9 9.0
# lloc lpopt rc5 dvloc0
4 5 1.3 0.0
# l nproj debl
0 2 1.0
1 2 1.0
2 2 1.0
# icmod fcfact rcfact
3 2.5 1.65
# epsh1 epsh2 depsh
-12.0 12.0 0.02
# rlmax drl
6.0 0.01
 0
]]>
</input-file>
</provenance>
<pseudo-atom-spec atomic-label="Zn" atomic-number="30" z-pseudo="20"
 flavor="Hamann&apos;s oncvpsp" relativity="dirac" spin-dft="no"
 core-corrections="yes">
<annotation pseudo-energy="-206.404578282" />
<exchange-correlation>
<annotation oncvpsp-xc-code="-116133" oncvpsp-xc-type="libxc-interface" />
<libxc-info number-of-functionals="2">
<functional name="Perdew, Burke &amp; Ernzerhof SOL (GGA)" type="exchange"
 id="116" />
<functional name="Perdew, Burke &amp; Ernzerhof SOL (GGA)" type="correlation"
 id="133" />
</libxc-info>
</exchange-correlation>
<valence-configuration total-valence-charge="20">
<shell n="3" l="s" occupation="2" />
<shell n="3" l="p" occupation="6" />
<shell n="3" l="d" occupation="10" />
<shell n="4" l="s" occupation="2" />
</valence-configuration>
</pseudo-atom-spec>
<grid npts="457">
<annotation type="sampled from oncvpsp log grid"
 recipe="r(i:1..N) = r1*exp(a*(i-1)) + r=0; resampled"
 recipe-cont="r1: scale; a: step" scale="0.166666666667E-04"
 step="0.119285708653E-01" delta="0.500000000000E-02" rmax="44.2266713690" />
<grid-data>
  0.000000000000E+00  5.050265833728E-03  1.008750967224E-02  1.513287306711E-02
  2.014900893097E-02  2.527454970839E-02  3.058944708272E-02  3.572056252801E-02
  4.072901687140E-02  4.588904843083E-02  5.108973672188E-02  5.620536399126E-02
  6.183322021382E-02  6.721797924334E-02  7.307167114917E-02  7.849321447608E-02
  8.431700851907E-02  8.949891128336E-02  9.499928023531E-02  1.008376874737E-01
  1.070349079473E-01  1.122658037340E-01  1.177523382768E-01  1.235070048802E-01
  1.295429074081E-01  1.358737901225E-01  1.425140689802E-01  1.477063878056E-01
  1.530878821627E-01  1.586654444216E-01  1.644462180666E-01  1.704376068463E-01
  1.766472842551E-01  1.830832033616E-01  1.897536069942E-01  1.966670382985E-01
  2.038323516784E-01  2.112587241371E-01  2.163593547726E-01  2.215831350343E-01
  2.269330382465E-01  2.324121095219E-01  2.380234674942E-01  2.437703060934E-01
  2.496558963637E-01  2.556835883255E-01  2.618568128821E-01  2.681790837723E-01
  2.746539995709E-01  2.812852457365E-01  2.880765967096E-01  2.950319180606E-01
  3.021551686902E-01  3.094504030831E-01  3.169217736151E-01  3.245735329173E-01
  3.324100362960E-01  3.404357442124E-01  3.486552248206E-01  3.570731565687E-01
  3.656943308609E-01  3.745236547852E-01  3.835661539063E-01  3.928269751262E-01
  4.023113896137E-01  4.120247958045E-01  4.219727224744E-01  4.270363951441E-01
  4.321608318858E-01  4.373467618685E-01  4.425949230109E-01  4.479060620870E-01
  4.532809348321E-01  4.587203060501E-01  4.642249497227E-01  4.697956491193E-01
  4.754331969088E-01  4.811383952717E-01  4.869120560149E-01  4.927550006871E-01
  4.986680606954E-01  5.046520774237E-01  5.107079023528E-01  5.168363971810E-01
  5.230384339472E-01  5.293148951546E-01  5.356666738964E-01  5.420946739832E-01
  5.485998100710E-01  5.551830077918E-01  5.618452038853E-01  5.685873463319E-01
  5.754103944879E-01  5.823153192218E-01  5.893031030524E-01  5.963747402891E-01
  6.035312371725E-01  6.107736120186E-01  6.181028953628E-01  6.255201301072E-01
  6.330263716685E-01  6.406226881285E-01  6.483101603860E-01  6.560898823107E-01
  6.639629608984E-01  6.719305164292E-01  6.799936826263E-01  6.881536068178E-01
  6.964114500997E-01  7.047683875009E-01  7.132256081509E-01  7.217843154487E-01
  7.304457272341E-01  7.392110759609E-01  7.480816088724E-01  7.570585881789E-01
  7.661432912370E-01  7.753370107319E-01  7.846410548606E-01  7.940567475190E-01
  8.035854284892E-01  8.132284536311E-01  8.229871950746E-01  8.328630414155E-01
  8.428573979125E-01  8.529716866875E-01  8.632073469277E-01  8.735658350908E-01
  8.840486251119E-01  8.946572086133E-01  9.053930951166E-01  9.162578122580E-01
  9.272529060051E-01  9.383799408772E-01  9.496405001677E-01  9.610361861697E-01
  9.725686204038E-01  9.842394438486E-01  9.960503171748E-01  1.008002920981E+00
  1.020098956033E+00  1.032340143505E+00  1.044728225227E+00  1.057264963930E+00
  1.069952143497E+00  1.082791569219E+00  1.095785068050E+00  1.108934488866E+00
  1.122241702733E+00  1.135708603165E+00  1.149337106403E+00  1.163129151680E+00
  1.177086701500E+00  1.191211741918E+00  1.205506282821E+00  1.219972358215E+00
  1.234612026514E+00  1.249427370832E+00  1.264420499282E+00  1.279593545273E+00
  1.294948667817E+00  1.310488051830E+00  1.326213908452E+00  1.342128475354E+00
  1.358234017058E+00  1.374532825263E+00  1.391027219166E+00  1.407719545796E+00
  1.424612180345E+00  1.441707526510E+00  1.459008016828E+00  1.476516113030E+00
  1.494234306386E+00  1.512165118063E+00  1.530311099479E+00  1.548674832673E+00
  1.567258930665E+00  1.586066037833E+00  1.605098830287E+00  1.624360016251E+00
  1.643852336446E+00  1.663578564483E+00  1.683541507257E+00  1.703744005344E+00
  1.724188933408E+00  1.744879200609E+00  1.765817751016E+00  1.787007564028E+00
  1.808451654797E+00  1.830153074654E+00  1.852114911550E+00  1.874340290489E+00
  1.896832373975E+00  1.919594362462E+00  1.942629494812E+00  1.965941048750E+00
  1.989532341335E+00  2.013406729431E+00  2.037567610184E+00  2.062018421506E+00
  2.086762642564E+00  2.111803794275E+00  2.137145439806E+00  2.162791185084E+00
  2.188744679305E+00  2.215009615457E+00  2.241589730842E+00  2.268488807612E+00
  2.295710673303E+00  2.323259201383E+00  2.351138311800E+00  2.379351971541E+00
  2.407904195200E+00  2.436799045542E+00  2.466040634089E+00  2.495633121698E+00
  2.525580719158E+00  2.555887687788E+00  2.586558340041E+00  2.617597040122E+00
  2.649008204603E+00  2.680796303059E+00  2.712965858695E+00  2.745521449000E+00
  2.778467706388E+00  2.811809318864E+00  2.845551030691E+00  2.879697643059E+00
  2.914254014776E+00  2.949225062953E+00  2.984615763708E+00  3.020431152873E+00
  3.056676326707E+00  3.093356442628E+00  3.130476719939E+00  3.168042440579E+00
  3.206058949866E+00  3.244531657264E+00  3.283466037151E+00  3.322867629597E+00
  3.362742041152E+00  3.403094945646E+00  3.443932084994E+00  3.485259270014E+00
  3.527082381254E+00  3.569407369829E+00  3.612240258267E+00  3.655587141366E+00
  3.699454187062E+00  3.743847637307E+00  3.788773808955E+00  3.834239094662E+00
  3.880249963798E+00  3.926812963364E+00  3.973934718924E+00  4.021621935551E+00
  4.069881398778E+00  4.118719975563E+00  4.168144615270E+00  4.218162350653E+00
  4.268780298861E+00  4.320005662447E+00  4.371845730397E+00  4.424307879162E+00
  4.477399573712E+00  4.531128368596E+00  4.585501909019E+00  4.640527931927E+00
  4.696214267111E+00  4.752568838316E+00  4.809599664376E+00  4.867314860348E+00
  4.925722638672E+00  4.984831310336E+00  5.044649286061E+00  5.105185077493E+00
  5.166447298423E+00  5.228444666004E+00  5.291186001996E+00  5.354680234020E+00
  5.418936396829E+00  5.483963633590E+00  5.549771197194E+00  5.616368451560E+00
  5.683764872979E+00  5.751970051454E+00  5.820993692072E+00  5.890845616377E+00
  5.961535763773E+00  6.033074192938E+00  6.105471083254E+00  6.178736736253E+00
  6.252881577088E+00  6.327916156013E+00  6.403851149885E+00  6.480697363684E+00
  6.558465732048E+00  6.637167320832E+00  6.716813328682E+00  6.797415088627E+00
  6.878984069690E+00  6.961531878526E+00  7.045070261069E+00  7.129611104201E+00
  7.215166437452E+00  7.301748434701E+00  7.389369415918E+00  7.478041848909E+00
  7.567778351096E+00  7.658591691309E+00  7.750494791605E+00  7.843500729104E+00
  7.937622737853E+00  8.032874210707E+00  8.129268701236E+00  8.226819925651E+00
  8.325541764758E+00  8.425448265935E+00  8.526553645127E+00  8.628872288868E+00
  8.732418756335E+00  8.837207781411E+00  8.943254274788E+00  9.050573326085E+00
  9.159180205998E+00  9.269090368470E+00  9.380319452892E+00  9.492883286326E+00
  9.606797885762E+00  9.722079460391E+00  9.838744413916E+00  9.956809346883E+00
  1.007629105905E+01  1.019720655175E+01  1.031957303038E+01  1.044340790674E+01
  1.056872880162E+01  1.069555354724E+01  1.082390018981E+01  1.095378699208E+01
  1.108523243599E+01  1.121825522522E+01  1.135287428792E+01  1.148910877938E+01
  1.162697808473E+01  1.176650182175E+01  1.190769984361E+01  1.205059224173E+01
  1.219519934863E+01  1.234154174082E+01  1.248964024171E+01  1.263951592461E+01
  1.279119011570E+01  1.294468439709E+01  1.310002060986E+01  1.325722085717E+01
  1.341630750746E+01  1.357730319755E+01  1.374023083592E+01  1.390511360595E+01
  1.407197496922E+01  1.424083866885E+01  1.441172873288E+01  1.458466947768E+01
  1.475968551141E+01  1.493680173754E+01  1.511604335839E+01  1.529743587870E+01
  1.548100510924E+01  1.566677717055E+01  1.585477849660E+01  1.604503583856E+01
  1.623757626862E+01  1.643242718384E+01  1.662961631005E+01  1.682917170577E+01
  1.703112176624E+01  1.723549522743E+01  1.744232117016E+01  1.765162902420E+01
  1.786344857249E+01  1.807780995536E+01  1.829474367483E+01  1.851428059893E+01
  1.873645196611E+01  1.896128938971E+01  1.918882486238E+01  1.941909076073E+01
  1.965211984986E+01  1.988794528806E+01  2.012660063152E+01  2.036811983909E+01
  2.061253727716E+01  2.085988772449E+01  2.111020637718E+01  2.136352885371E+01
  2.161989119995E+01  2.187932989435E+01  2.214188185309E+01  2.240758443532E+01
  2.267647544855E+01  2.294859315393E+01  2.322397627178E+01  2.350266398704E+01
  2.378469595488E+01  2.407011230634E+01  2.435895365402E+01  2.465126109787E+01
  2.494707623104E+01  2.524644114581E+01  2.554939843956E+01  2.585599122084E+01
  2.616626311549E+01  2.648025827287E+01  2.679802137215E+01  2.711959762861E+01
  2.744503280016E+01  2.777437319376E+01  2.810766567208E+01  2.844495766015E+01
  2.878629715207E+01  2.913173271789E+01  2.948131351051E+01  2.983508927264E+01
  3.019311034391E+01  3.055542766803E+01  3.092209280005E+01  3.129315791365E+01
  3.166867580861E+01  3.204869991832E+01  3.243328431734E+01  3.282248372915E+01
  3.321635353390E+01  3.361494977630E+01  3.401832917362E+01  3.442654912370E+01
  3.483966771319E+01  3.525774372574E+01  3.568083665045E+01  3.610900669026E+01
  3.654231477054E+01  3.698082254779E+01  3.742459241836E+01  3.787368752738E+01
  3.832817177771E+01  3.878810983904E+01  3.925356715711E+01  3.972460996300E+01
  4.020130528255E+01  4.068372094594E+01  4.117192559730E+01  4.166598870446E+01
  4.216598056892E+01  4.267197233574E+01  4.318403600377E+01  4.370224443582E+01
  4.422667136905E+01
</grid-data>
</grid>
<valence-charge total-charge="20" is-unscreening-charge="yes"
 rescaled-to-z-pseudo="no">
<radfunc>
<data npts="457">
  2.749861581441E+01  2.750467697050E+01  2.752279313458E+01  2.755300855313E+01
  2.759500057489E+01  2.765018417760E+01  2.772046314697E+01  2.780086721841E+01
  2.789118173040E+01  2.799638042465E+01  2.811479902547E+01  2.824332095403E+01
  2.839838052622E+01  2.856001146802E+01  2.875026556064E+01  2.893981944372E+01
  2.915753035401E+01  2.936333481305E+01  2.959404071007E+01  2.985248886621E+01
  3.014179626684E+01  3.039773969679E+01  3.067748794825E+01  3.098304501700E+01
  3.131653707455E+01  3.168020868409E+01  3.207641544967E+01  3.239639514422E+01
  3.273712175045E+01  3.309968243934E+01  3.348517773488E+01  3.389471275466E+01
  3.432938646466E+01  3.479027863973E+01  3.527843418618E+01  3.579484444510E+01
  3.634042505814E+01  3.691598994007E+01  3.731670093688E+01  3.773120699282E+01
  3.815963216960E+01  3.860205657334E+01  3.905851006788E+01  3.952896541414E+01
  4.001333080490E+01  4.051144176661E+01  4.102305240306E+01  4.154782595941E+01
  4.208532469137E+01  4.263499903093E+01  4.319617604962E+01  4.376804723134E+01
  4.434965558085E+01  4.493988211054E+01  4.553743176832E+01  4.614081889261E+01
  4.674835230833E+01  4.735812020937E+01  4.796797500935E+01  4.857551838431E+01
  4.917808677666E+01  4.977273768208E+01  5.035623709695E+01  5.092504856561E+01
  5.147532433177E+01  5.200289916707E+01  5.250328751974E+01  5.274179763746E+01
  5.297168469639E+01  5.319229922504E+01  5.340297285735E+01  5.360301884298E+01
  5.379173266719E+01  5.396839278742E+01  5.413226149416E+01  5.428258590355E+01
  5.441859908905E+01  5.453952135961E+01  5.464456169143E+01  5.473291932036E+01
  5.480378550134E+01  5.485634544135E+01  5.488978041121E+01  5.490327004156E+01
  5.489599480712E+01  5.486713870259E+01  5.481589211276E+01  5.474145487782E+01
  5.464303955393E+01  5.451987486732E+01  5.437120935888E+01  5.419631521411E+01
  5.399449227146E+01  5.376507219997E+01  5.350742283481E+01  5.322095265682E+01
  5.290511539951E+01  5.255941476432E+01  5.218340922202E+01  5.177671687504E+01
  5.133902035256E+01  5.087007170700E+01  5.036969727742E+01  4.983780248203E+01
  4.927437649929E+01  4.867949679346E+01  4.805333343838E+01  4.739615318988E+01
  4.670832325544E+01  4.599031470744E+01  4.524270548470E+01  4.446618292613E+01
  4.366154577955E+01  4.282970562904E+01  4.197168768478E+01  4.108863088133E+01
  4.018178723243E+01  3.925252039408E+01  3.830230339206E+01  3.733271547551E+01
  3.634543806476E+01  3.534224976926E+01  3.432502046019E+01  3.329570439230E+01
  3.225633238006E+01  3.120900304538E+01  3.015587316656E+01  2.909914717155E+01
  2.804106583253E+01  2.698389423310E+01  2.592990909380E+01  2.488138555567E+01
  2.384058353590E+01  2.280973378211E+01  2.179102376433E+01  2.078658355399E+01
  1.979847184833E+01  1.882866230523E+01  1.787903035777E+01  1.695134067942E+01
  1.604723546923E+01  1.516822372183E+01  1.431567163874E+01  1.349079432608E+01
  1.269464890900E+01  1.192812917433E+01  1.119196183202E+01  1.048670446142E+01
  9.812745181925E+00  9.170304059073E+00  8.559436227520E+00  7.980036682226E+00
  7.431846659309E+00  6.914461499300E+00  6.427339858732E+00  5.969814111948E+00
  5.541101764464E+00  5.140317682866E+00  4.766486934620E+00  4.418558024682E+00
  4.095416314741E+00  3.795897415225E+00  3.518800349779E+00  3.262900306308E+00
  3.026960807306E+00  2.809745263979E+00  2.610028078475E+00  2.426604892423E+00
  2.258300902168E+00  2.103978058906E+00  1.962541158407E+00  1.832942822567E+00
  1.714187411997E+00  1.605333925605E+00  1.505497959076E+00  1.413852806597E+00
  1.329629797978E+00  1.252117966962E+00  1.180663146408E+00  1.114666582646E+00
  1.053583155441E+00  9.969192822631E-01  9.442303886525E-01  8.951175243765E-01
  8.492236964489E-01  8.062318686191E-01  7.658628131359E-01  7.278728752830E-01
  6.920516509821E-01  6.582195879395E-01  6.262255186466E-01  5.959430740692E-01
  5.672629565389E-01  5.400838714553E-01  5.143107773307E-01  4.898557774133E-01
  4.666370624138E-01  4.445786073730E-01  4.236097773658E-01  4.036649632946E-01
  3.846832372718E-01  3.666080269098E-01  3.493868080031E-01  3.329708150217E-01
  3.173147688075E-01  3.023766208408E-01  2.881173134256E-01  2.745005551319E-01
  2.614926108256E-01  2.490621056139E-01  2.371798420407E-01  2.258186298595E-01
  2.149531277470E-01  2.045596963001E-01  1.946162616994E-01  1.851021894256E-01
  1.759981674395E-01  1.672860982544E-01  1.589489993501E-01  1.509709114016E-01
  1.433368138140E-01  1.360325470837E-01  1.290447415213E-01  1.223607519010E-01
  1.159685976185E-01  1.098569079657E-01  1.040148721470E-01  9.843219368896E-02
  9.309904891054E-02  8.800604914343E-02  8.314420641101E-02  7.850490229225E-02
  7.407985971524E-02  6.986111744220E-02  6.584100702419E-02  6.201213201961E-02
  5.836734928610E-02  5.489975216965E-02  5.160265542873E-02  4.846958173962E-02
  4.549424967248E-02  4.267056296121E-02  3.999260100478E-02  3.745461047083E-02
  3.505099791155E-02  3.277632330462E-02  3.062529443929E-02  2.859276207321E-02
  2.667371579061E-02  2.486328049591E-02  2.315671348012E-02  2.154940199897E-02
  2.003686130357E-02  1.861473306508E-02  1.727878413578E-02  1.602490558963E-02
  1.484911198631E-02  1.374754080370E-02  1.271645198586E-02  1.175222755537E-02
  1.085137124204E-02  1.001050808328E-02  9.226383955653E-03  8.495865001579E-03
  7.815936920252E-03  7.183704097006E-03  6.596388550898E-03  6.051328685684E-03
  5.545977834678E-03  5.077902595112E-03  4.644780952352E-03  4.244400198658E-03
  3.874654655025E-03  3.533543207937E-03  3.219166675654E-03  2.929725020803E-03
  2.663514427770E-03  2.418924264437E-03  2.194433948534E-03  1.988609739016E-03
  1.800101472701E-03  1.627639265859E-03  1.470030199579E-03  1.326155006680E-03
  1.194964776615E-03  1.075477693429E-03  9.667758202733E-04  8.680019424162E-04
  7.783564790824E-04  6.970944728830E-04  6.235226640594E-04  5.569966553163E-04
  4.969181716582E-04  4.427324184034E-04  3.939255394268E-04  3.500221767008E-04
  3.105831313442E-04  2.752031256721E-04  2.435086651398E-04  2.151559985970E-04
  1.898291748945E-04  1.672381936059E-04  1.471172474270E-04  1.292230536837E-04
  1.133332722979E-04  9.924500752286E-05  8.677339074986E-05  7.575024170051E-05
  6.602280534172E-05  5.745256189178E-05  4.991410731726E-05  4.329410175139E-05
  3.749028329125E-05  3.241054465425E-05  2.797207019295E-05  2.410053078244E-05
  2.072933410734E-05  1.779892788802E-05  1.525615359581E-05  1.305364822395E-05
  1.114929170537E-05  9.505697567659E-06  8.089744353151E-06  6.872146343788E-06
  5.827058091592E-06  4.931717564668E-06  4.166117031120E-06  3.512703892135E-06
  2.956110484409E-06  2.482910592005E-06  2.081396971478E-06  1.741382167070E-06
  1.454020062564E-06  1.211645331786E-06  1.007629755965E-06  8.362540363136E-07
  6.925936777521E-07  5.724176454306E-07  4.720985818931E-07  3.885334589262E-07
  3.190736219128E-07  2.614632653898E-07  2.137854561603E-07  1.744148944338E-07
  1.419766738584E-07  1.153103678062E-07  9.343883179490E-08  7.554117042301E-08
  6.092937169106E-08  4.902816210749E-08  3.935768264152E-08  3.151862849053E-08
  2.517953492528E-08  2.006592732235E-08  1.595108606430E-08  1.264820647369E-08
  1.000376053709E-08  7.891891067847E-09  6.209690346654E-09  4.873234360633E-09
  3.814260723732E-09  2.977393386547E-09  2.317830507008E-09  1.799423521132E-09
  1.393085682066E-09  1.075477272782E-09  8.279224797581E-10  6.355196681983E-10
  4.864126400207E-10  3.711954903415E-10  2.824280031032E-10  2.142422293920E-10
  1.620240516193E-10  1.221562237143E-10  9.181165476299E-11  6.878762704440E-11
  5.137325859293E-11  3.824387872836E-11  2.837712057349E-11  2.098648065490E-11
  1.546888114821E-11  1.136342016947E-11  8.319031257527E-12  6.069213307741E-12
  4.412352483725E-12  3.196451479957E-12  2.307320310223E-12  1.659476158700E-12
  1.189155821778E-12  8.489696450840E-13  6.038262526354E-13  4.278374484649E-13
  3.019763102569E-13  2.123118714254E-13  1.486835115448E-13  1.037093750818E-13
  7.204754672454E-14  4.984773024659E-14  3.434593697728E-14  2.356609675401E-14
  1.610128375502E-14  1.095397878807E-14  7.419847677121E-15  5.003994623525E-15
  3.359769615816E-15  2.245690347637E-15  1.494220070533E-15  9.896460637081E-16
  6.524119622225E-16  4.280715353849E-16  2.795365848863E-16  1.816619533544E-16
  1.174808751364E-16  7.560017113097E-17  4.840665038017E-17  3.083811722683E-17
  1.954541320449E-17  1.232393283847E-17  7.729906125267E-18  4.822721509377E-18
  2.992785024877E-18  1.847124651610E-18  1.133772350610E-18  6.920473009387E-19
  4.200460371828E-19  2.535010581449E-19  1.521089062270E-19  9.073844316559E-20
  5.380953618232E-20  3.171957720428E-20  1.858508715449E-20  0.000000000000E+00
  0.000000000000E+00  0.000000000000E+00  0.000000000000E+00  0.000000000000E+00
  0.000000000000E+00  0.000000000000E+00  0.000000000000E+00  0.000000000000E+00
  0.000000000000E+00  0.000000000000E+00  0.000000000000E+00  0.000000000000E+00
  0.000000000000E+00  0.000000000000E+00  0.000000000000E+00  0.000000000000E+00
  0.000000000000E+00  0.000000000000E+00  0.000000000000E+00  0.000000000000E+00
  0.000000000000E+00  0.000000000000E+00  0.000000000000E+00  0.000000000000E+00
  0.000000000000E+00
</data>
</radfunc>
</valence-charge>
<pseudocore-charge matching-radius="0.365694330861"
 number-of-continuous-derivatives="4">
<annotation model-charge-form="Teter function with specified parameters" />
<radfunc>
<data npts="290">
  1.313607166486E+02  1.313316456991E+02  1.312447684189E+02  1.310999125148E+02
  1.308986901622E+02  1.306344171755E+02  1.302981195726E+02  1.299137376746E+02
  1.294824430706E+02  1.289806894442E+02  1.284166793963E+02  1.278055022225E+02
  1.270694455175E+02  1.263037262442E+02  1.254044036181E+02  1.245105329489E+02
  1.234865133999E+02  1.225210737076E+02  1.214417871013E+02  1.202364276518E+02
  1.188917775655E+02  1.177062581329E+02  1.164148161883E+02  1.150093843832E+02
  1.134815737642E+02  1.118227288651E+02  1.100240021016E+02  1.085777803231E+02
  1.070440755910E+02  1.054191631815E+02  1.036994039425E+02  1.018812924185E+02
  9.996151206008E+01  9.793699801276E+01  9.580500791353E+01  9.356320102234E+01
  9.120972587327E+01  8.874331643812E+01  8.703598595776E+01  8.527821237456E+01
  8.347019198093E+01  8.161231093566E+01  7.970516172974E+01  7.774955994767E+01
  7.574656117635E+01  7.369747788588E+01  7.160389607654E+01  6.946769145375E+01
  6.729104485902E+01  6.507645664946E+01  6.282675968211E+01  6.054513052315E+01
  5.823509846636E+01  5.590055191193E+01  5.354574162580E+01  5.117528037508E+01
  4.879413841550E+01  4.640763429731E+01  4.402142045723E+01  4.164146307841E+01
  3.927401573191E+01  3.692558636314E+01  3.460289725923E+01  3.231283772981E+01
  3.006240935801E+01  2.785866383110E+01  2.570863354353E+01  2.465593533577E+01
  2.361925537870E+01  2.259943233903E+01  2.159728831898E+01  2.061362601161E+01
  1.964922580342E+01  1.870484283664E+01  1.778120404487E+01  1.687900517711E+01
  1.599890782630E+01  1.514153647977E+01  1.430747561004E+01  1.349726682562E+01
  1.271140610234E+01  1.195034111665E+01  1.121446870326E+01  1.050413245980E+01
  9.819620521957E+00  9.161163532624E+00  8.528932828732E+00  7.923038869199E+00
  7.343529927060E+00  6.790391068078E+00  6.263543437140E+00  5.762843872414E+00
  5.288084865596E+00  4.838994884556E+00  4.415239072368E+00  4.016420334005E+00
  3.642080818936E+00  3.291703804492E+00  2.964715981108E+00  2.660490136659E+00
  2.378348232662E+00  2.117564860745E+00  1.877371063002E+00  1.656958495042E+00
  1.455483905622E+00  1.272073901876E+00  1.105829964283E+00  9.558336709122E-01
  8.211520860480E-01  7.008432642714E-01  5.939618175003E-01  4.995644894520E-01
  4.167156796392E-01  3.444928574002E-01  2.819918057066E-01  2.283316346659E-01
  1.826595058076E-01  1.441550104739E-01  1.120341489469E-01  8.555286137372E-02
  6.401006705947E-02  4.675017526756E-02  3.316503822137E-02  2.269532543971E-02
  1.483130773629E-02  9.113049004834E-03  5.130014106988E-03  2.520111561170E-03
  9.682000558863E-04  2.040978202540E-04  1.433071573166E-07  1.683642046641E-04
  5.573192188963E-04  1.048683110376E-03  1.553649884851E-03  2.009231642967E-03
  2.374531230894E-03  2.627065411881E-03  2.759211766420E-03  2.774846967212E-03
  2.686236581070E-03  2.511227316992E-03  2.270781937852E-03  1.986885222632E-03
  1.680836808804E-03  1.371933910559E-03  1.076534280262E-03  8.074778515056E-04
  5.738347555288E-04  3.809382864779E-04  2.306542933261E-04  1.218337022455E-04
  5.089262343264E-05  1.246485010735E-05  7.446133087346E-08  6.781504388746E-06
  2.576103398355E-05  5.078468165721E-05  7.658387865151E-05  9.908424931689E-05
  1.155108890700E-04  1.243736097741E-04  1.253491993228E-04  1.190838211892E-04
  1.069425291135E-04  9.073431282751E-05  7.244012777235E-05  5.396818884874E-05
  3.695579626977E-05  2.263063112346E-05  1.173743677753E-05  4.528969276970E-06
  8.137241965756E-07  4.782231544499E-08  1.455019525435E-06  4.157370463425E-06
  7.299677455417E-06  1.015332883012E-05  1.218909771713E-05  1.311339178115E-05
  1.286767054023E-05  1.159561019482E-05  9.586487048794E-06  7.205701183036E-06
  4.824108471082E-06  2.756850535463E-06  1.219895377096E-06  3.089682749621E-07
  1.555311211064E-09  0.000000000000E+00  0.000000000000E+00  0.000000000000E+00
  0.000000000000E+00  0.000000000000E+00  0.000000000000E+00  0.000000000000E+00
  0.000000000000E+00  0.000000000000E+00  0.000000000000E+00  0.000000000000E+00
  0.000000000000E+00  0.000000000000E+00  0.000000000000E+00  0.000000000000E+00
  0.000000000000E+00  0.000000000000E+00  0.000000000000E+00  0.000000000000E+00
  0.000000000000E+00  0.000000000000E+00  0.000000000000E+00  0.000000000000E+00
  0.000000000000E+00  0.000000000000E+00  0.000000000000E+00  0.000000000000E+00
  0.000000000000E+00  0.000000000000E+00  0.000000000000E+00  0.000000000000E+00
  0.000000000000E+00  0.000000000000E+00  0.000000000000E+00  0.000000000000E+00
  0.000000000000E+00  0.000000000000E+00  0.000000000000E+00  0.000000000000E+00
  0.000000000000E+00  0.000000000000E+00  0.000000000000E+00  0.000000000000E+00
  0.000000000000E+00  0.000000000000E+00  0.000000000000E+00  0.000000000000E+00
  0.000000000000E+00  0.000000000000E+00  0.000000000000E+00  0.000000000000E+00
  0.000000000000E+00  0.000000000000E+00  0.000000000000E+00  0.000000000000E+00
  0.000000000000E+00  0.000000000000E+00  0.000000000000E+00  0.000000000000E+00
  0.000000000000E+00  0.000000000000E+00  0.000000000000E+00  0.000000000000E+00
  0.000000000000E+00  0.000000000000E+00  0.000000000000E+00  0.000000000000E+00
  0.000000000000E+00  0.000000000000E+00  0.000000000000E+00  0.000000000000E+00
  0.000000000000E+00  0.000000000000E+00  0.000000000000E+00  0.000000000000E+00
  0.000000000000E+00  0.000000000000E+00  0.000000000000E+00  0.000000000000E+00
  0.000000000000E+00  0.000000000000E+00  0.000000000000E+00  0.000000000000E+00
  0.000000000000E+00  0.000000000000E+00  0.000000000000E+00  0.000000000000E+00
  0.000000000000E+00  0.000000000000E+00  0.000000000000E+00  0.000000000000E+00
  0.000000000000E+00  0.000000000000E+00  0.000000000000E+00  0.000000000000E+00
  0.000000000000E+00  0.000000000000E+00  0.000000000000E+00  0.000000000000E+00
  0.000000000000E+00  0.000000000000E+00
</data>
</radfunc>
</pseudocore-charge>
<semilocal-potentials set="lj">
<slps n="3" l="s" j="0.5" rc="1.35823401706" eref="-4.73646758986">
<radfunc>
<data npts="290">
 -3.235973509026E+01 -3.235958627119E+01 -3.235914117561E+01 -3.235839799050E+01
 -3.235736344324E+01 -3.235600087837E+01 -3.235426059806E+01 -3.235226270122E+01
 -3.235000971475E+01 -3.234737355299E+01 -3.234439069255E+01 -3.234113467178E+01
 -3.233718018418E+01 -3.233302728560E+01 -3.232809807336E+01 -3.232314238327E+01
 -3.231739469805E+01 -3.231190551174E+01 -3.230568648398E+01 -3.229863560654E+01
 -3.229063528097E+01 -3.228346078115E+01 -3.227551270364E+01 -3.226670159449E+01
 -3.225692643025E+01 -3.224607289572E+01 -3.223401137133E+01 -3.222408462670E+01
 -3.221332643523E+01 -3.220166007283E+01 -3.218900077368E+01 -3.217525478052E+01
 -3.216031827609E+01 -3.214407618177E+01 -3.212640080808E+01 -3.210715034098E+01
 -3.208616714665E+01 -3.206327587702E+01 -3.204685949150E+01 -3.202944558382E+01
 -3.201096624235E+01 -3.199134848500E+01 -3.197051387657E+01 -3.194837812219E+01
 -3.192485063661E+01 -3.189983408965E+01 -3.187322392854E+01 -3.184490787862E+01
 -3.181476542453E+01 -3.178266727530E+01 -3.174847481772E+01 -3.171203956405E+01
 -3.167320260188E+01 -3.163179405591E+01 -3.158763257395E+01 -3.154052485149E+01
 -3.149026521243E+01 -3.143663526510E+01 -3.137940365530E+01 -3.131832593859E+01
 -3.125314459372E+01 -3.118358919606E+01 -3.110937676467E+01 -3.103021228683E+01
 -3.094578941159E+01 -3.085579128733E+01 -3.075989150019E+01 -3.070962410519E+01
 -3.065775505261E+01 -3.060424128178E+01 -3.054903930806E+01 -3.049210524502E+01
 -3.043339482325E+01 -3.037286340550E+01 -3.031046599795E+01 -3.024615725776E+01
 -3.017989149694E+01 -3.011162268324E+01 -3.004130443853E+01 -2.996889003567E+01
 -2.989433239488E+01 -2.981758408086E+01 -2.973859730194E+01 -2.965732391270E+01
 -2.957371542137E+01 -2.948772300354E+01 -2.939929752332E+01 -2.930838956330E+01
 -2.921494946437E+01 -2.911892737654E+01 -2.902027332163E+01 -2.891893726878E+01
 -2.881486922371E+01 -2.870801933260E+01 -2.859833800151E+01 -2.848577603240E+01
 -2.837028477655E+01 -2.825181630664E+01 -2.813032360815E+01 -2.800576079097E+01
 -2.787808332183E+01 -2.774724827759E+01 -2.761321461922E+01 -2.747594348573E+01
 -2.733539850639E+01 -2.719154612945E+01 -2.704435596431E+01 -2.689380113383E+01
 -2.673985863281E+01 -2.658250968810E+01 -2.642174011585E+01 -2.625754067092E+01
 -2.608990738399E+01 -2.591884188184E+01 -2.574435168699E+01 -2.556645049326E+01
 -2.538515841432E+01 -2.520050220309E+01 -2.501251543985E+01 -2.482123868759E+01
 -2.462671961286E+01 -2.442901307034E+01 -2.422818114902E+01 -2.402429317710E+01
 -2.381742568244E+01 -2.360766230434E+01 -2.339509365224E+01 -2.317981710647E+01
 -2.296193655632E+01 -2.274156207142E+01 -2.251880950345E+01 -2.229380001742E+01
 -2.206665955456E+01 -2.183751823234E+01 -2.160650969236E+01 -2.137377041184E+01
 -2.113943900170E+01 -2.090365552128E+01 -2.066656084824E+01 -2.042829615110E+01
 -2.018900252134E+01 -1.994882083150E+01 -1.970789189519E+01 -1.946635701368E+01
 -1.922435900150E+01 -1.898204378899E+01 -1.873956270337E+01 -1.849707552899E+01
 -1.825475444316E+01 -1.801278891287E+01 -1.777139162172E+01 -1.753080547159E+01
 -1.729131167292E+01 -1.705323889885E+01 -1.681697343469E+01 -1.658297020732E+01