<?xml version="1.0" encoding="UTF-8" ?>
<psml version="1.1" energy_unit="hartree" length_unit="bohr"
 uuid="207cc240-53a0-11e8-4f4d-9010ebbb38ce"
 xmlns="http://esl.cecam.org/PSML/ns/1.1">
<provenance creator="ONCVPSP-3.3.0+psml-3.3.0-73 (fully-relativistic)"
 date="2018-05-09">
<annotation action="semilocal-pseudopotential-generation"
 action-cont="projectors-generation" />
<input-file name="oncvpsp-input">
<![CDATA[# atsym z nc nv iexc psfile
Li 3 0 2 -116133 upf
# n l f
1 0 2.0
2 0 1.0
# lmax
1
# l rc ep ncon nbas qcut
0 1.2 0.0 4 8 9.8
1 1.0 0.0 4 8 9.2
# lloc lpopt rc5 dvloc0
4 5 0.9 0.0
# l nproj debl
0 2 1.0
1 2 1.0
# icmod fcfact
0 0.25
# epsh1 epsh2 depsh
-12.0 12.0 0.02
# rlmax drl
4.0 0.01
 0
]]>
</input-file>
</provenance>
<pseudo-atom-spec atomic-label="Li" atomic-number="3" z-pseudo="3"
 flavor="Hamann&apos;s oncvpsp" relativity="dirac" spin-dft="no"
 core-corrections="no">
<annotation pseudo-energy="-7.18160916626" />
<exchange-correlation>
<annotation oncvpsp-xc-code="-116133" oncvpsp-xc-type="libxc-interface" />
<libxc-info number-of-functionals="2">
<functional name="Perdew, Burke &amp; Ernzerhof SOL (GGA)" type="exchange"
 id="116" />
<functional name="Perdew, Burke &amp; Ernzerhof SOL (GGA)" type="correlation"
 id="133" />
</libxc-info>
</exchange-correlation>
<valence-configuration total-valence-charge="3">
<shell n="1" l="s" occupation="2" />
<shell n="2" l="s" occupation="1" />
</valence-configuration>
</pseudo-atom-spec>
<grid npts="457">
<annotation type="sampled from oncvpsp log grid"
 recipe="r(i:1..N) = r1*exp(a*(i-1)) + r=0; resampled"
 recipe-cont="r1: scale; a: step" scale="0.166666666667E-03"
 step="0.119285708653E-01" delta="0.500000000000E-02" rmax="44.2430787916" />
<grid-data>
  0.000000000000E+00  5.052139405559E-03  1.009125198494E-02  1.513848713291E-02
  2.015648390690E-02  2.528392618201E-02  3.060079530245E-02  3.573381431355E-02
  4.074412671733E-02  4.590607257001E-02  5.110869023733E-02  5.622621532664E-02
  6.185615939828E-02  6.724291609153E-02  7.309877962804E-02  7.852233426508E-02
  8.434828884711E-02  8.953211401853E-02  9.503452352372E-02  1.008750967224E-01
  1.070746162705E-01  1.123074526400E-01  1.177960226038E-01  1.235528241010E-01
  1.295909658570E-01  1.359241972326E-01  1.425669395327E-01  1.477611846294E-01
  1.531446754392E-01  1.587243068888E-01  1.645072251130E-01  1.705008366068E-01
  1.767128177115E-01  1.831511244461E-01  1.898240026970E-01  1.967399987792E-01
  2.039079703814E-01  2.113370979113E-01  2.164396208033E-01  2.216653390080E-01
  2.270172269530E-01  2.324983308805E-01  2.381117705813E-01  2.438607411702E-01
  2.497485149050E-01  2.557784430489E-01  2.619539577779E-01  2.682785741345E-01
  2.747558920284E-01  2.813895982855E-01  2.881834687465E-01  2.951413704159E-01
  3.022672636632E-01  3.095652044771E-01  3.170393467740E-01  3.246939447625E-01
  3.325333553649E-01  3.405620406968E-01  3.487845706074E-01  3.572056252801E-01
  3.658299978969E-01  3.746625973661E-01  3.837084511169E-01  3.929727079607E-01
  4.024606410217E-01  4.121776507385E-01  4.221292679380E-01  4.271948191532E-01
  4.323211569831E-01  4.375090108669E-01  4.427591189973E-01  4.480722284252E-01
  4.534490951663E-01  4.588904843083E-01  4.643971701200E-01  4.699699361615E-01
  4.756095753954E-01  4.813168903001E-01  4.870926929837E-01  4.929378052995E-01
  4.988530589631E-01  5.048392956707E-01  5.108973672188E-01  5.170281356254E-01
  5.232324732529E-01  5.295112629319E-01  5.358653980871E-01  5.422957828641E-01
  5.488033322585E-01  5.553889722456E-01  5.620536399126E-01  5.687982835915E-01
  5.756238629946E-01  5.825313493505E-01  5.895217255428E-01  5.965959862493E-01
  6.037551380843E-01  6.110001997413E-01  6.183322021382E-01  6.257521885638E-01
  6.332612148266E-01  6.408603494045E-01  6.485506735974E-01  6.563332816805E-01
  6.642092810607E-01  6.721797924334E-01  6.802459499426E-01  6.884089013419E-01
  6.966698081580E-01  7.050298458559E-01  7.134902040062E-01  7.220520864543E-01
  7.307167114917E-01  7.394853120296E-01  7.483591357740E-01  7.573394454033E-01
  7.664275187481E-01  7.756246489731E-01  7.849321447608E-01  7.943513304979E-01
  8.038835464639E-01  8.135301490214E-01  8.232925108097E-01  8.331720209394E-01
  8.431700851907E-01  8.532881262130E-01  8.635275837275E-01  8.738899147323E-01
  8.843765937091E-01  8.949891128336E-01  9.057289821876E-01  9.165977299738E-01
  9.275969027335E-01  9.387280655663E-01  9.499928023531E-01  9.613927159813E-01
  9.729294285731E-01  9.846045817160E-01  9.964198366966E-01  1.008376874737E+00
  1.020477397234E+00  1.032723126001E+00  1.045115803513E+00  1.057657193155E+00
  1.070349079473E+00  1.083193268426E+00  1.096191587647E+00  1.109345886699E+00
  1.122658037340E+00  1.136129933788E+00  1.149763492993E+00  1.163560654909E+00
  1.177523382768E+00  1.191653663361E+00  1.205953507321E+00  1.220424949409E+00
  1.235070048802E+00  1.249890889388E+00  1.264889580060E+00  1.280068255021E+00
  1.295429074081E+00  1.310974222970E+00  1.326705913646E+00  1.342626384610E+00
  1.358737901225E+00  1.375042756040E+00  1.391543269112E+00  1.408241788342E+00
  1.425140689802E+00  1.442242378079E+00  1.459549286616E+00  1.477063878056E+00
  1.494788644592E+00  1.512726108328E+00  1.530878821627E+00  1.549249367487E+00
  1.567840359897E+00  1.586654444216E+00  1.605694297546E+00  1.624962629117E+00
  1.644462180666E+00  1.664195726834E+00  1.684166075556E+00  1.704376068463E+00
  1.724828581284E+00  1.745526524260E+00  1.766472842551E+00  1.787670516662E+00
  1.809122562861E+00  1.830832033616E+00  1.852802018019E+00  1.875035642235E+00
  1.897536069942E+00  1.920306502782E+00  1.943350180815E+00  1.966670382985E+00
  1.990270427581E+00  2.014153672711E+00  2.038323516784E+00  2.062783398985E+00
  2.087536799773E+00  2.112587241371E+00  2.137938288267E+00  2.163593547726E+00
  2.189556670299E+00  2.215831350343E+00  2.242421326547E+00  2.269330382465E+00
  2.296562347055E+00  2.324121095219E+00  2.352010548362E+00  2.380234674942E+00
  2.408797491042E+00  2.437703060934E+00  2.466955497665E+00  2.496558963637E+00
  2.526517671201E+00  2.556835883255E+00  2.587517913855E+00  2.618568128821E+00
  2.649990946367E+00  2.681790837723E+00  2.713972327776E+00  2.746539995709E+00
  2.779498475658E+00  2.812852457365E+00  2.846606686854E+00  2.880765967096E+00
  2.915335158701E+00  2.950319180606E+00  2.985723010773E+00  3.021551686902E+00
  3.057810307145E+00  3.094504030831E+00  3.131638079201E+00  3.169217736151E+00
  3.207248348985E+00  3.245735329173E+00  3.284684153123E+00  3.324100362960E+00
  3.363989567316E+00  3.404357442124E+00  3.445209731429E+00  3.486552248206E+00
  3.528390875185E+00  3.570731565687E+00  3.613580344475E+00  3.656943308609E+00
  3.700826628312E+00  3.745236547852E+00  3.790179386426E+00  3.835661539063E+00
  3.881689477532E+00  3.928269751262E+00  3.975408988278E+00  4.023113896137E+00
  4.071391262890E+00  4.120247958045E+00  4.169690933542E+00  4.219727224744E+00
  4.270363951441E+00  4.321608318858E+00  4.373467618685E+00  4.425949230109E+00
  4.479060620870E+00  4.532809348321E+00  4.587203060501E+00  4.642249497227E+00
  4.697956491193E+00  4.754331969088E+00  4.811383952717E+00  4.869120560149E+00
  4.927550006871E+00  4.986680606954E+00  5.046520774237E+00  5.107079023528E+00
  5.168363971810E+00  5.230384339472E+00  5.293148951546E+00  5.356666738964E+00
  5.420946739832E+00  5.485998100710E+00  5.551830077918E+00  5.618452038853E+00
  5.685873463319E+00  5.754103944879E+00  5.823153192218E+00  5.893031030524E+00
  5.963747402891E+00  6.035312371725E+00  6.107736120186E+00  6.181028953628E+00
  6.255201301072E+00  6.330263716685E+00  6.406226881285E+00  6.483101603860E+00
  6.560898823107E+00  6.639629608984E+00  6.719305164292E+00  6.799936826263E+00
  6.881536068178E+00  6.964114500997E+00  7.047683875009E+00  7.132256081509E+00
  7.217843154487E+00  7.304457272341E+00  7.392110759609E+00  7.480816088724E+00
  7.570585881789E+00  7.661432912370E+00  7.753370107319E+00  7.846410548606E+00
  7.940567475190E+00  8.035854284892E+00  8.132284536311E+00  8.229871950746E+00
  8.328630414155E+00  8.428573979125E+00  8.529716866875E+00  8.632073469277E+00
  8.735658350908E+00  8.840486251119E+00  8.946572086133E+00  9.053930951166E+00
  9.162578122580E+00  9.272529060051E+00  9.383799408772E+00  9.496405001677E+00
  9.610361861697E+00  9.725686204038E+00  9.842394438486E+00  9.960503171748E+00
  1.008002920981E+01  1.020098956033E+01  1.032340143505E+01  1.044728225227E+01
  1.057264963930E+01  1.069952143497E+01  1.082791569219E+01  1.095785068050E+01
  1.108934488866E+01  1.122241702733E+01  1.135708603165E+01  1.149337106403E+01
  1.163129151680E+01  1.177086701500E+01  1.191211741918E+01  1.205506282821E+01
  1.219972358215E+01  1.234612026514E+01  1.249427370832E+01  1.264420499282E+01
  1.279593545273E+01  1.294948667817E+01  1.310488051830E+01  1.326213908452E+01
  1.342128475354E+01  1.358234017058E+01  1.374532825263E+01  1.391027219166E+01
  1.407719545796E+01  1.424612180345E+01  1.441707526510E+01  1.459008016828E+01
  1.476516113030E+01  1.494234306386E+01  1.512165118063E+01  1.530311099479E+01
  1.548674832673E+01  1.567258930665E+01  1.586066037833E+01  1.605098830287E+01
  1.624360016251E+01  1.643852336446E+01  1.663578564483E+01  1.683541507257E+01
  1.703744005344E+01  1.724188933408E+01  1.744879200609E+01  1.765817751016E+01
  1.787007564028E+01  1.808451654797E+01  1.830153074654E+01  1.852114911550E+01
  1.874340290489E+01  1.896832373975E+01  1.919594362462E+01  1.942629494812E+01
  1.965941048750E+01  1.989532341335E+01  2.013406729431E+01  2.037567610184E+01
  2.062018421506E+01  2.086762642564E+01  2.111803794275E+01  2.137145439806E+01
  2.162791185084E+01  2.188744679305E+01  2.215009615457E+01  2.241589730842E+01
  2.268488807612E+01  2.295710673303E+01  2.323259201383E+01  2.351138311800E+01
  2.379351971541E+01  2.407904195200E+01  2.436799045542E+01  2.466040634089E+01
  2.495633121698E+01  2.525580719158E+01  2.555887687788E+01  2.586558340041E+01
  2.617597040122E+01  2.649008204603E+01  2.680796303059E+01  2.712965858695E+01
  2.745521449000E+01  2.778467706388E+01  2.811809318864E+01  2.845551030691E+01
  2.879697643059E+01  2.914254014776E+01  2.949225062953E+01  2.984615763708E+01
  3.020431152873E+01  3.056676326707E+01  3.093356442628E+01  3.130476719939E+01
  3.168042440579E+01  3.206058949866E+01  3.244531657264E+01  3.283466037151E+01
  3.322867629597E+01  3.362742041152E+01  3.403094945646E+01  3.443932084994E+01
  3.485259270014E+01  3.527082381254E+01  3.569407369829E+01  3.612240258267E+01
  3.655587141366E+01  3.699454187062E+01  3.743847637307E+01  3.788773808955E+01
  3.834239094662E+01  3.880249963798E+01  3.926812963364E+01  3.973934718924E+01
  4.021621935551E+01  4.069881398778E+01  4.118719975563E+01  4.168144615270E+01
  4.218162350653E+01  4.268780298861E+01  4.320005662447E+01  4.371845730397E+01
  4.424307879162E+01
</grid-data>
</grid>
<valence-charge total-charge="3" is-unscreening-charge="yes"
 rescaled-to-z-pseudo="no">
<radfunc>
<data npts="457">
  4.331475908933E+01  4.330876467283E+01  4.329084758720E+01  4.326096580757E+01
  4.321944104073E+01  4.316487782510E+01  4.309539932477E+01  4.301592517848E+01
  4.292667300119E+01  4.282273514282E+01  4.270576552720E+01  4.257885119578E+01
  4.242577865199E+01  4.226627294541E+01  4.207858913097E+01  4.189166767318E+01
  4.167706529150E+01  4.147427979188E+01  4.124704705713E+01  4.099259588390E+01
  4.070788798219E+01  4.045611665897E+01  4.018103098425E+01  3.988067863037E+01
  3.955298683817E+01  3.919576445375E+01  3.880670660593E+01  3.849257470623E+01
  3.815812894367E+01  3.780229092550E+01  3.742396096780E+01  3.702202392574E+01
  3.659535624340E+01  3.614283436158E+01  3.566334462548E+01  3.515579483465E+01
  3.461912757411E+01  3.405233545645E+01  3.365727043006E+01  3.324813897563E+01
  3.282470295988E+01  3.238674710498E+01  3.193408216359E+01  3.146654828245E+01
  3.098401854833E+01  3.048640270699E+01  2.997365104171E+01  2.944575839380E+01
  2.890276830273E+01  2.834477723798E+01  2.777193888928E+01  2.718446847506E+01
  2.658264702268E+01  2.596682556647E+01  2.533742920249E+01  2.469496093092E+01
  2.404000520973E+01  2.337323113552E+01  2.269539516031E+01  2.200734324685E+01
  2.131001235918E+01  2.060443118137E+01  1.989171995464E+01  1.917308932298E+01
  1.844983807964E+01  1.772334971218E+01  1.699508765285E+01  1.663076919322E+01
  1.626658915385E+01  1.590274998491E+01  1.553945772413E+01  1.517692167914E+01
  1.481535408643E+01  1.445496974710E+01  1.409598563972E+01  1.373862051079E+01
  1.338309444351E+01  1.302962840553E+01  1.267844377674E+01  1.232976185821E+01
  1.198380336365E+01  1.164078789488E+01  1.130093340296E+01  1.096445563692E+01
  1.063156758220E+01  1.030247889090E+01  9.977395306357E+00  9.656518084691E+00
  9.340043415879E+00  9.028161847400E+00  8.721057713379E+00  8.418908572362E+00
  8.121884656926E+00  7.830148338405E+00  7.543853610030E+00  7.263145591847E+00
  6.988160060695E+00  6.719023008570E+00  6.455850232535E+00  6.198746959328E+00
  5.947807507588E+00  5.703114990525E+00  5.464741061604E+00  5.232745705602E+00
  5.007177077115E+00  4.788071388304E+00  4.575452847334E+00  4.369333648610E+00
  4.169714015550E+00  3.976582296236E+00  3.789915111882E+00  3.609677557646E+00
  3.435823454895E+00  3.268295653622E+00  3.107026383299E+00  2.951937650038E+00
  2.802941677601E+00  2.659941389374E+00  2.522830928153E+00  2.391496210268E+00
  2.265815510300E+00  2.145660072470E+00  2.030894744559E+00  1.921378630139E+00
  1.816965754789E+00  1.717505741945E+00  1.622844494076E+00  1.532824874931E+00
  1.447287388712E+00  1.366070852185E+00  1.289013055952E+00  1.215951411292E+00
  1.146723579231E+00  1.081168078786E+00  1.019124871523E+00  9.604359198976E-01
  9.049457170338E-01  8.525017858491E-01  8.029551456000E-01  7.561607440793E-01
  7.119778537897E-01  6.702704304729E-01  6.309074323768E-01  5.937630986005E-01
  5.587171847878E-01  5.256551543428E-01  4.944683232515E-01  4.650539565333E-01
  4.373153143345E-01  4.111616457710E-01  3.865081288380E-01  3.632757550895E-01
  3.413911583586E-01  3.207863875864E-01  3.013986248405E-01  2.831696623795E-01
  2.660446168203E-01  2.499702980267E-01  2.348952145781E-01  2.207695499921E-01
  2.075451541120E-01  1.951755306852E-01  1.836158229195E-01  1.728227969636E-01
  1.627548234905E-01  1.533718575664E-01  1.446354169974E-01  1.365085593540E-01
  1.289558578824E-01  1.219433765061E-01  1.154386441146E-01  1.094106283065E-01
  1.038297087048E-01  9.866764987923E-02  9.389757378221E-02  8.949393141847E-02
  8.543247321480E-02  8.169021722808E-02  7.824541394357E-02  7.507750601522E-02
  7.216708098537E-02  6.949581497199E-02  6.704640579281E-02  6.480249532847E-02
  6.274858334496E-02  6.086993837256E-02  5.915251474856E-02  5.758288694528E-02
  5.614821097122E-02  5.483621716736E-02  5.363523059000E-02  5.253420780518E-02
  5.152277568306E-02  5.059125972351E-02  4.973069484066E-02  4.893281743899E-02
  4.819004181435E-02  4.749542575930E-02  4.684263024622E-02  4.622587707865E-02
  4.563990715646E-02  4.507994089637E-02  4.454164153318E-02  4.402108149801E-02
  4.351471176788E-02  4.301933393470E-02  4.253207469168E-02  4.205036243845E-02
  4.157190573516E-02  4.109467337371E-02  4.061687587267E-02  4.013694823627E-02
  3.965353384720E-02  3.916546938554E-02  3.867177068490E-02  3.817161945063E-02
  3.766435077606E-02  3.714944140095E-02  3.662649866281E-02  3.609525009674E-02
  3.555553364373E-02  3.500728843030E-02  3.445054608545E-02  3.388542256330E-02
  3.331211044164E-02  3.273087166908E-02  3.214203073470E-02  3.154596823630E-02
  3.094311482455E-02  3.033394550190E-02  2.971897425677E-02  2.909874901435E-02
  2.847384688711E-02  2.784486970892E-02  2.721243983798E-02  2.657719621464E-02
  2.593979066143E-02  2.530088441309E-02  2.466114486574E-02  2.402124253453E-02
  2.338184821049E-02  2.274363030719E-02  2.210725238910E-02  2.147337087357E-02
  2.084263289897E-02  2.021567435202E-02  1.959311804743E-02  1.897557205336E-02
  1.836362815646E-02  1.775786046016E-02  1.715882411006E-02  1.656705414032E-02
  1.598306443478E-02  1.540734679648E-02  1.484037011917E-02  1.428257965415E-02
  1.373439636591E-02  1.319621636965E-02  1.266841044401E-02  1.215132361246E-02
  1.164527478681E-02  1.115055646724E-02  1.066743449341E-02  1.019614784257E-02
  9.736908471473E-03  9.289901200610E-03  8.855283640478E-03  8.433186161841E-03
  8.023711913379E-03  7.626936892096E-03  7.242910073358E-03  6.871653608745E-03
  6.513163100774E-03  6.167407963870E-03  5.834331880704E-03  5.513853362153E-03
  5.205866417593E-03  4.910241339577E-03  4.626825609526E-03  4.355444913021E-03
  4.095904273994E-03  3.847989294008E-03  3.611467489027E-03  3.386089711993E-03
  3.171591647458E-03  2.967695362927E-03  2.774110900507E-03  2.590537891886E-03
  2.416667179683E-03  2.252182428592E-03  2.096761710602E-03  1.950079049731E-03
  1.811805913146E-03  1.681612637144E-03  1.559169778201E-03  1.444149381067E-03
  1.336226157664E-03  1.235078572261E-03  1.140389830016E-03  1.051848767534E-03
  9.691506454032E-04  8.919978439615E-04  8.201004645813E-04  7.531768396517E-04
  6.909539553052E-04  6.331677914020E-04  5.795635837389E-04  5.298960140910E-04
  4.839293335756E-04  4.414374249485E-04  4.022038097173E-04  3.660216057231E-04
  3.326934406925E-04  3.020313271068E-04  2.738565034790E-04  2.479992468352E-04
  2.242986608822E-04  2.026024439987E-04  1.827666408388E-04  1.646553809759E-04
  1.481406076613E-04  1.331017994263E-04  1.194256869228E-04  1.070059670897E-04
  9.574301643782E-05  8.554360498660E-05  7.632061214913E-05  6.799274565250E-05
  6.048426440190E-05  5.372470604239E-05  4.764861984365E-05  4.219530542659E-05
  3.730855776397E-05  3.293641881730E-05  2.903093611620E-05  2.554792854094E-05
  2.244675953213E-05  1.969011791977E-05  1.724380653677E-05  1.507653875580E-05
  1.315974306403E-05  1.146737576455E-05  9.975741867850E-06  8.663324209202E-06
  7.510620799928E-06  6.499990391150E-06  5.615506198975E-06  4.842817709978E-06
  4.169020456166E-06  3.582533619572E-06  3.072985298986E-06  2.631105245232E-06
  2.248624847568E-06  1.918184132221E-06  1.633245515332E-06  1.388014036579E-06
  1.177363786790E-06  9.967702328649E-07  8.422481362325E-07  7.102947569586E-07
  5.978380340997E-07  5.021894340218E-07  4.210011618075E-07  3.522274363974E-07
  2.940895374863E-07  2.450443411745E-07  2.037560716950E-07  1.690710079680E-07
  1.399948960210E-07  1.156728312353E-07  9.537138773814E-08  7.846278584160E-08
  6.441090208654E-08  5.275894001318E-08  4.311859312268E-08  3.516054450558E-08
  2.860616019606E-08  2.322024539117E-08  1.880474419295E-08  1.519327444345E-08
  1.224639949925E-08  9.847548415241E-09  7.899504969983E-09  6.321394270415E-09
  5.046103331711E-09  4.018079056558E-09  3.191453459137E-09  2.528451819523E-09
  1.998044743826E-09  1.574809876264E-09  1.237973294826E-09  9.706044564500E-10
  7.589419747662E-10  5.918305472036E-10  4.602520315014E-10  3.569360360555E-10
  2.760374643146E-10  2.128702692268E-10  1.636882563613E-10  1.255051488059E-10
  9.594731640628E-11  7.313359762324E-11  5.557752368353E-11  4.210800942280E-11
  3.180521921389E-11  2.394886396145E-11  1.797664912725E-11  1.345098551886E-11
  1.003240420670E-11  7.458393311951E-12  5.526605317909E-12  4.081575797543E-12
  3.004253928658E-12  2.203776996500E-12  1.611029665288E-12  1.173617912177E-12
  8.519603854870E-13  6.162593172544E-13  4.441613117022E-13  3.189573055160E-13
  2.282023982431E-13  1.626614577254E-13  1.155065620485E-13  8.170839623984E-14
  5.757646348817E-14  4.041304218563E-14  2.825374988437E-14  1.967379404305E-14
  1.364384690993E-14  9.423260730277E-15  6.481267215725E-15  4.439064221862E-15
  3.027428352271E-15  2.055820333071E-15  1.389961905177E-15  9.356306472044E-16
  6.269989964528E-16  4.182798087732E-16  2.777672904473E-16  1.836054891664E-16
  1.207970966101E-16  7.909867946358E-17  5.154650215532E-17  3.342884908971E-17
  2.157300425245E-17  1.385291685906E-17  8.850897719421E-18  5.626297547155E-18
  3.558121797799E-18  2.238488119552E-18  1.400868703354E-18  8.720093792897E-19
  5.398811235058E-19  0.000000000000E+00  0.000000000000E+00  0.000000000000E+00
  0.000000000000E+00
</data>
</radfunc>
</valence-charge>
<semilocal-potentials set="lj">
<slps n="1" l="s" j="0.5" rc="1.20595350732" eref="-1.88790719080">
<radfunc>
<data npts="256">
 -1.326404358811E+01 -1.326342613951E+01 -1.326157995781E+01 -1.325849947844E+01
 -1.325421576411E+01 -1.324858173259E+01 -1.324139891408E+01 -1.323317075949E+01
 -1.322391497101E+01 -1.321311573242E+01 -1.320093596637E+01 -1.318768871645E+01
 -1.317166650611E+01 -1.315491865518E+01 -1.313514320018E+01 -1.311537326136E+01
 -1.309258257225E+01 -1.307095442589E+01 -1.304661092101E+01 -1.301921442842E+01
 -1.298838615948E+01 -1.296096890267E+01 -1.293084359088E+01 -1.289774646387E+01
 -1.286138879459E+01 -1.282145466825E+01 -1.277759859451E+01 -1.274190688024E+01
 -1.270362532141E+01 -1.266257015609E+01 -1.261854519652E+01 -1.257134108792E+01
 -1.252073454228E+01 -1.246648755140E+01 -1.240834658452E+01 -1.234604177834E+01
 -1.227928612959E+01 -1.220777470331E+01 -1.215729929635E+01 -1.210446612521E+01
 -1.204917062186E+01 -1.199130422583E+01 -1.193075432008E+01 -1.186740418071E+01
 -1.180113294349E+01 -1.173181559057E+01 -1.165932296123E+01 -1.158352179099E+01
 -1.150427478411E+01 -1.142144072500E+01 -1.133487463472E+01 -1.124442797984E+01
 -1.114994894114E+01 -1.105128275110E+01 -1.094827210962E+01 -1.084075768854E+01
 -1.072857873651E+01 -1.061157379684E+01 -1.048958155174E+01 -1.036244180770E+01
 -1.022999663752E+01 -1.009209169548E+01 -9.948577722931E+00 -9.799312262156E+00
 -9.644161596963E+00 -9.483002938465E+00 -9.315726874505E+00 -9.229764947904E+00
 -9.142240100644E+00 -9.053143683501E+00 -8.962468449758E+00 -8.870208667296E+00
 -8.776360235926E+00 -8.680920810023E+00 -8.583889926576E+00 -8.485269138696E+00
 -8.385062154648E+00 -8.283274982459E+00 -8.179916080138E+00 -8.074996511533E+00
 -7.968530107860E+00 -7.860533634904E+00 -7.751026965928E+00 -7.640033260284E+00
 -7.527579147752E+00 -7.413694918630E+00 -7.298414719615E+00 -7.181776755501E+00
 -7.063823496790E+00 -6.944601893285E+00 -6.824163593778E+00 -6.702565171971E+00
 -6.579868358787E+00 -6.456140281237E+00 -6.331453708015E+00 -6.205887301984E+00
 -6.079525879669E+00 -5.952460677797E+00 -5.824789626805E+00 -5.696617631060E+00
 -5.568056855265E+00 -5.439227016175E+00 -5.310255678309E+00 -5.181278551717E+00
 -5.052439789164E+00 -4.923892279140E+00 -4.795797930058E+00 -4.668327939670E+00
 -4.541663042241E+00 -4.415993724280E+00 -4.291520397686E+00 -4.168453516972E+00
 -4.047013624890E+00 -3.927431308194E+00 -3.809947042651E+00 -3.694810903585E+00
 -3.582282115538E+00 -3.472628411891E+00 -3.366125172836E+00 -3.263054307890E+00
 -3.163702847488E+00 -3.068361207132E+00 -2.977321087453E+00 -2.890872974424E+00
 -2.809303206272E+00 -2.732890577435E+00 -2.661902455590E+00 -2.596590395560E+00
 -2.537185243874E+00 -2.483891740324E+00 -2.436882637818E+00 -2.396292379510E+00
 -2.362210392176E+00 -2.334674077151E+00 -2.313661604242E+00 -2.299084639504E+00
 -2.290781163994E+00 -2.288508566731E+00 -2.291937220545E+00 -2.300644773247E+00
 -2.314111408234E+00 -2.331716347519E+00 -2.352735886104E+00 -2.376343259492E+00
 -2.401610656124E+00 -2.427513693862E+00 -2.452938684467E+00 -2.476693012259E+00
 -2.497518952035E+00 -2.514111245703E+00 -2.525138744866E+00 -2.529270447980E+00
 -2.525205633654E+00 -2.511708642640E+00 -2.487659438630E+00 -2.458171357648E+00
 -2.429018977343E+00 -2.400216486211E+00 -2.371755055332E+00 -2.343631186368E+00
 -2.315840805172E+00 -2.288379970111E+00 -2.261244774303E+00 -2.234431359362E+00
 -2.207935913446E+00 -2.181754671067E+00 -2.155883912831E+00 -2.130319965187E+00
 -2.105059200152E+00 -2.080098034956E+00 -2.055432931508E+00 -2.031060395538E+00
 -2.006976975220E+00 -1.983179259033E+00 -1.959663872563E+00 -1.936427474000E+00
 -1.913466748185E+00 -1.890778399415E+00 -1.868359143813E+00 -1.846205703001E+00
 -1.824314801992E+00 -1.802683175187E+00 -1.781307584341E+00 -1.760184850125E+00
 -1.739311893506E+00 -1.718685775308E+00 -1.698303715938E+00 -1.678163078923E+00
 -1.658261315650E+00 -1.638595888853E+00 -1.619164204813E+00 -1.599963579147E+00
 -1.580991242895E+00 -1.562244377776E+00 -1.543720161475E+00 -1.525415806365E+00
 -1.507328583278E+00 -1.489455830091E+00 -1.471794949596E+00 -1.454343402047E+00
 -1.437098696464E+00 -1.420058382952E+00 -1.403220046853E+00 -1.386581304715E+00
 -1.370139801718E+00 -1.353893210141E+00 -1.337839228497E+00 -1.321975581067E+00
 -1.306300017659E+00 -1.290810313456E+00 -1.275504268914E+00 -1.260379709650E+00
 -1.245434486319E+00 -1.230666474462E+00 -1.216073574339E+00 -1.201653710729E+00
 -1.187404832725E+00 -1.173324913506E+00 -1.159411950104E+00 -1.145663963156E+00
 -1.132078996663E+00 -1.118655117730E+00 -1.105390416317E+00 -1.092283004983E+00
 -1.079331018626E+00 -1.066532614234E+00 -1.053885970626E+00 -1.041389288203E+00
 -1.029040788696E+00 -1.016838714913E+00 -1.004781330499E+00 -9.928669196845E-01
 -9.810937870479E-01 -9.694602572727E-01 -9.579646749107E-01 -9.466054041469E-01
 -9.353808285672E-01 -9.242893509280E-01 -9.133293929294E-01 -9.024993949899E-01
 -8.917978160249E-01 -8.812231332264E-01 -8.707738418469E-01 -8.604484549844E-01
 -8.502455033710E-01 -8.401635351635E-01 -8.302011157367E-01 -8.203568274795E-01
 -8.106292695930E-01 -8.010170578916E-01 -7.915188246060E-01 -7.821332181894E-01
 -7.728589031252E-01 -7.636945597381E-01 -7.546388840066E-01 -7.456905873787E-01
</data>
</radfunc>
</slps>
<slps n="2" l="p" j="1.5" rc="1.00837687474" eref="0.834825114748E-08">
<radfunc>
<data npts="256">
 -8.261743418963E+00 -8.262483365335E+00 -8.264690815043E+00 -8.268359593995E+00
 -8.273431476375E+00 -8.280049300433E+00 -8.288399674455E+00 -8.297846494397E+00
 -8.308322397221E+00 -8.320344782814E+00 -8.333647001205E+00 -8.347808334576E+00
 -8.364513201180E+00 -8.381485071445E+00 -8.400888801955E+00 -8.419607653951E+00
 -8.440356218319E+00 -8.459236628973E+00 -8.479559822284E+00 -8.501277874149E+00
 -8.524284758876E+00 -8.543499294684E+00 -8.563288130373E+00 -8.583467814587E+00
 -8.603798816481E+00 -8.623975738194E+00 -8.643616688897E+00 -8.657716769703E+00
 -8.671018939323E+00 -8.683254721948E+00 -8.694118807886E+00 -8.703266625674E+00
 -8.710312262552E+00 -8.714826897547E+00 -8.716337943925E+00 -8.714329132235E+00
 -8.708241800343E+00 -8.697477690717E+00 -8.687391956371E+00 -8.674751887097E+00
 -8.659358125629E+00 -8.641008293047E+00 -8.619498666692E+00 -8.594626139783E+00
 -8.566190477172E+00 -8.533996877384E+00 -8.497858845136E+00 -8.457601370958E+00
 -8.413064404885E+00 -8.364106599379E+00 -8.310609282377E+00 -8.252480604567E+00
 -8.189659785519E+00 -8.122121361285E+00 -8.049879311660E+00 -7.972990918976E+00
 -7.891560182762E+00 -7.805740586900E+00 -7.715736989623E+00 -7.621806383692E+00
 -7.524257257028E+00 -7.423447275958E+00 -7.319779017831E+00 -7.213693501254E+00
 -7.105661305099E+00 -6.996171136585E+00 -6.885715808420E+00 -6.830277318176E+00
 -6.774775719104E+00 -6.719266043210E+00 -6.663800101155E+00 -6.608425809762E+00
 -6.553186509480E+00 -6.498120279974E+00 -6.443259263157E+00 -6.388629004084E+00
 -6.334247821240E+00 -6.280126218804E+00 -6.226266354493E+00 -6.172661577446E+00
 -6.119296051403E+00 -6.066144478977E+00 -6.013171943221E+00 -5.960333882766E+00
 -5.907576216616E+00 -5.854835634147E+00 -5.802040064856E+00 -5.749109341056E+00
 -5.695956064754E+00 -5.642486687553E+00 -5.588602809368E+00 -5.534202698131E+00
 -5.479183028436E+00 -5.423440832120E+00 -5.366875648323E+00 -5.309391854389E+00
 -5.250901152281E+00 -5.191325178013E+00 -5.130598193982E+00 -5.068669816275E+00
 -5.005507721056E+00 -4.941100266378E+00 -4.875458958323E+00 -4.808620683660E+00
 -4.740649625558E+00 -4.671638774639E+00 -4.601710945359E+00 -4.531019207696E+00
 -4.459746647015E+00 -4.388105371170E+00 -4.316334693896E+00 -4.244698437759E+00
 -4.173481318609E+00 -4.102984396917E+00 -4.033519609453E+00 -3.965403427391E+00
 -3.898949723479E+00 -3.834461970777E+00 -3.772224937342E+00 -3.712496083873E+00
 -3.655496912725E+00 -3.601404554926E+00 -3.550343914441E+00 -3.502380713420E+00
 -3.457515796013E+00 -3.415681048930E+00 -3.376737282139E+00 -3.340474380910E+00
 -3.306613989568E+00 -3.274814917195E+00 -3.244681366311E+00 -3.215773978499E+00
 -3.187623568201E+00 -3.159747280923E+00 -3.131666769181E+00 -3.102927834379E+00
 -3.073120842033E+00 -3.041901089008E+00 -3.009008193238E+00 -2.974283498074E+00
 -2.938824791543E+00 -2.903823818016E+00 -2.869270810479E+00 -2.835168335923E+00
 -2.801516725152E+00 -2.768313680094E+00 -2.735553894043E+00 -2.703228717820E+00
 -2.671325916103E+00 -2.639829567707E+00 -2.608720169198E+00 -2.577975043166E+00
 -2.547568549840E+00 -2.517472482498E+00 -2.487667645924E+00 -2.458171357648E+00
 -2.429018977343E+00 -2.400216486211E+00 -2.371755055332E+00 -2.343631186368E+00
 -2.315840805172E+00 -2.288379970111E+00 -2.261244774303E+00 -2.234431359362E+00
 -2.207935913446E+00 -2.181754671067E+00 -2.155883912831E+00 -2.130319965187E+00
 -2.105059200152E+00 -2.080098034956E+00 -2.055432931508E+00 -2.031060395538E+00
 -2.006976975220E+00 -1.983179259033E+00 -1.959663872563E+00 -1.936427474000E+00
 -1.913466748185E+00 -1.890778399415E+00 -1.868359143813E+00 -1.846205703001E+00
 -1.824314801992E+00 -1.802683175187E+00 -1.781307584341E+00 -1.760184850125E+00
 -1.739311893506E+00 -1.718685775308E+00 -1.698303715938E+00 -1.678163078923E+00
 -1.658261315650E+00 -1.638595888853E+00 -1.619164204813E+00 -1.599963579147E+00
 -1.580991242895E+00 -1.562244377776E+00 -1.543720161475E+00 -1.525415806365E+00
 -1.507328583278E+00 -1.489455830091E+00 -1.471794949596E+00 -1.454343402047E+00
 -1.437098696464E+00 -1.420058382952E+00 -1.403220046853E+00 -1.386581304715E+00