<?xml version="1.0" encoding="UTF-8" ?>
<psml version="1.1" energy_unit="hartree" length_unit="bohr"
 uuid="d0e50140-539d-11e8-7445-6895ff4eed24"
 xmlns="http://esl.cecam.org/PSML/ns/1.1">
<provenance creator="ONCVPSP-3.3.0+psml-3.3.0-73 (fully-relativistic)"
 date="2018-05-09">
<annotation action="semilocal-pseudopotential-generation"
 action-cont="projectors-generation" />
<input-file name="oncvpsp-input">
<![CDATA[# atsym z nc nv iexc psfile
Li 3 0 2 -116133 upf
# n l f
1 0 2.0
2 0 1.0
# lmax
1
# l rc ep ncon nbas qcut
0 1.4 0.0 4 8 8.6
1 1.1 0.0 4 8 9.0
# lloc lpopt rc5 dvloc0
4 5 1.1 0.0
# l nproj debl
0 2 1.0
1 2 1.0
# icmod fcfact
0 0.25
# epsh1 epsh2 depsh
-12.0 12.0 0.02
# rlmax drl
4.0 0.01
 0
]]>
</input-file>
</provenance>
<pseudo-atom-spec atomic-label="Li" atomic-number="3" z-pseudo="3"
 flavor="Hamann&apos;s oncvpsp" relativity="dirac" spin-dft="no"
 core-corrections="no">
<annotation pseudo-energy="-7.08202944636" />
<exchange-correlation>
<annotation oncvpsp-xc-code="-116133" oncvpsp-xc-type="libxc-interface" />
<libxc-info number-of-functionals="2">
<functional name="Perdew, Burke &amp; Ernzerhof SOL (GGA)" type="exchange"
 id="116" />
<functional name="Perdew, Burke &amp; Ernzerhof SOL (GGA)" type="correlation"
 id="133" />
</libxc-info>
</exchange-correlation>
<valence-configuration total-valence-charge="3">
<shell n="1" l="s" occupation="2" />
<shell n="2" l="s" occupation="1" />
</valence-configuration>
</pseudo-atom-spec>
<grid npts="457">
<annotation type="sampled from oncvpsp log grid"
 recipe="r(i:1..N) = r1*exp(a*(i-1)) + r=0; resampled"
 recipe-cont="r1: scale; a: step" scale="0.166666666667E-03"
 step="0.119285708653E-01" delta="0.500000000000E-02" rmax="44.2430787916" />
<grid-data>
  0.000000000000E+00  5.052139405559E-03  1.009125198494E-02  1.513848713291E-02
  2.015648390690E-02  2.528392618201E-02  3.060079530245E-02  3.573381431355E-02
  4.074412671733E-02  4.590607257001E-02  5.110869023733E-02  5.622621532664E-02
  6.185615939828E-02  6.724291609153E-02  7.309877962804E-02  7.852233426508E-02
  8.434828884711E-02  8.953211401853E-02  9.503452352372E-02  1.008750967224E-01
  1.070746162705E-01  1.123074526400E-01  1.177960226038E-01  1.235528241010E-01
  1.295909658570E-01  1.359241972326E-01  1.425669395327E-01  1.477611846294E-01
  1.531446754392E-01  1.587243068888E-01  1.645072251130E-01  1.705008366068E-01
  1.767128177115E-01  1.831511244461E-01  1.898240026970E-01  1.967399987792E-01
  2.039079703814E-01  2.113370979113E-01  2.164396208033E-01  2.216653390080E-01
  2.270172269530E-01  2.324983308805E-01  2.381117705813E-01  2.438607411702E-01
  2.497485149050E-01  2.557784430489E-01  2.619539577779E-01  2.682785741345E-01
  2.747558920284E-01  2.813895982855E-01  2.881834687465E-01  2.951413704159E-01
  3.022672636632E-01  3.095652044771E-01  3.170393467740E-01  3.246939447625E-01
  3.325333553649E-01  3.405620406968E-01  3.487845706074E-01  3.572056252801E-01
  3.658299978969E-01  3.746625973661E-01  3.837084511169E-01  3.929727079607E-01
  4.024606410217E-01  4.121776507385E-01  4.221292679380E-01  4.271948191532E-01
  4.323211569831E-01  4.375090108669E-01  4.427591189973E-01  4.480722284252E-01
  4.534490951663E-01  4.588904843083E-01  4.643971701200E-01  4.699699361615E-01
  4.756095753954E-01  4.813168903001E-01  4.870926929837E-01  4.929378052995E-01
  4.988530589631E-01  5.048392956707E-01  5.108973672188E-01  5.170281356254E-01
  5.232324732529E-01  5.295112629319E-01  5.358653980871E-01  5.422957828641E-01
  5.488033322585E-01  5.553889722456E-01  5.620536399126E-01  5.687982835915E-01
  5.756238629946E-01  5.825313493505E-01  5.895217255428E-01  5.965959862493E-01
  6.037551380843E-01  6.110001997413E-01  6.183322021382E-01  6.257521885638E-01
  6.332612148266E-01  6.408603494045E-01  6.485506735974E-01  6.563332816805E-01
  6.642092810607E-01  6.721797924334E-01  6.802459499426E-01  6.884089013419E-01
  6.966698081580E-01  7.050298458559E-01  7.134902040062E-01  7.220520864543E-01
  7.307167114917E-01  7.394853120296E-01  7.483591357740E-01  7.573394454033E-01
  7.664275187481E-01  7.756246489731E-01  7.849321447608E-01  7.943513304979E-01
  8.038835464639E-01  8.135301490214E-01  8.232925108097E-01  8.331720209394E-01
  8.431700851907E-01  8.532881262130E-01  8.635275837275E-01  8.738899147323E-01
  8.843765937091E-01  8.949891128336E-01  9.057289821876E-01  9.165977299738E-01
  9.275969027335E-01  9.387280655663E-01  9.499928023531E-01  9.613927159813E-01
  9.729294285731E-01  9.846045817160E-01  9.964198366966E-01  1.008376874737E+00
  1.020477397234E+00  1.032723126001E+00  1.045115803513E+00  1.057657193155E+00
  1.070349079473E+00  1.083193268426E+00  1.096191587647E+00  1.109345886699E+00
  1.122658037340E+00  1.136129933788E+00  1.149763492993E+00  1.163560654909E+00
  1.177523382768E+00  1.191653663361E+00  1.205953507321E+00  1.220424949409E+00
  1.235070048802E+00  1.249890889388E+00  1.264889580060E+00  1.280068255021E+00
  1.295429074081E+00  1.310974222970E+00  1.326705913646E+00  1.342626384610E+00
  1.358737901225E+00  1.375042756040E+00  1.391543269112E+00  1.408241788342E+00
  1.425140689802E+00  1.442242378079E+00  1.459549286616E+00  1.477063878056E+00
  1.494788644592E+00  1.512726108328E+00  1.530878821627E+00  1.549249367487E+00
  1.567840359897E+00  1.586654444216E+00  1.605694297546E+00  1.624962629117E+00
  1.644462180666E+00  1.664195726834E+00  1.684166075556E+00  1.704376068463E+00
  1.724828581284E+00  1.745526524260E+00  1.766472842551E+00  1.787670516662E+00
  1.809122562861E+00  1.830832033616E+00  1.852802018019E+00  1.875035642235E+00
  1.897536069942E+00  1.920306502782E+00  1.943350180815E+00  1.966670382985E+00
  1.990270427581E+00  2.014153672711E+00  2.038323516784E+00  2.062783398985E+00
  2.087536799773E+00  2.112587241371E+00  2.137938288267E+00  2.163593547726E+00
  2.189556670299E+00  2.215831350343E+00  2.242421326547E+00  2.269330382465E+00
  2.296562347055E+00  2.324121095219E+00  2.352010548362E+00  2.380234674942E+00
  2.408797491042E+00  2.437703060934E+00  2.466955497665E+00  2.496558963637E+00
  2.526517671201E+00  2.556835883255E+00  2.587517913855E+00  2.618568128821E+00
  2.649990946367E+00  2.681790837723E+00  2.713972327776E+00  2.746539995709E+00
  2.779498475658E+00  2.812852457365E+00  2.846606686854E+00  2.880765967096E+00
  2.915335158701E+00  2.950319180606E+00  2.985723010773E+00  3.021551686902E+00
  3.057810307145E+00  3.094504030831E+00  3.131638079201E+00  3.169217736151E+00
  3.207248348985E+00  3.245735329173E+00  3.284684153123E+00  3.324100362960E+00
  3.363989567316E+00  3.404357442124E+00  3.445209731429E+00  3.486552248206E+00
  3.528390875185E+00  3.570731565687E+00  3.613580344475E+00  3.656943308609E+00
  3.700826628312E+00  3.745236547852E+00  3.790179386426E+00  3.835661539063E+00
  3.881689477532E+00  3.928269751262E+00  3.975408988278E+00  4.023113896137E+00
  4.071391262890E+00  4.120247958045E+00  4.169690933542E+00  4.219727224744E+00
  4.270363951441E+00  4.321608318858E+00  4.373467618685E+00  4.425949230109E+00
  4.479060620870E+00  4.532809348321E+00  4.587203060501E+00  4.642249497227E+00
  4.697956491193E+00  4.754331969088E+00  4.811383952717E+00  4.869120560149E+00
  4.927550006871E+00  4.986680606954E+00  5.046520774237E+00  5.107079023528E+00
  5.168363971810E+00  5.230384339472E+00  5.293148951546E+00  5.356666738964E+00
  5.420946739832E+00  5.485998100710E+00  5.551830077918E+00  5.618452038853E+00
  5.685873463319E+00  5.754103944879E+00  5.823153192218E+00  5.893031030524E+00
  5.963747402891E+00  6.035312371725E+00  6.107736120186E+00  6.181028953628E+00
  6.255201301072E+00  6.330263716685E+00  6.406226881285E+00  6.483101603860E+00
  6.560898823107E+00  6.639629608984E+00  6.719305164292E+00  6.799936826263E+00
  6.881536068178E+00  6.964114500997E+00  7.047683875009E+00  7.132256081509E+00
  7.217843154487E+00  7.304457272341E+00  7.392110759609E+00  7.480816088724E+00
  7.570585881789E+00  7.661432912370E+00  7.753370107319E+00  7.846410548606E+00
  7.940567475190E+00  8.035854284892E+00  8.132284536311E+00  8.229871950746E+00
  8.328630414155E+00  8.428573979125E+00  8.529716866875E+00  8.632073469277E+00
  8.735658350908E+00  8.840486251119E+00  8.946572086133E+00  9.053930951166E+00
  9.162578122580E+00  9.272529060051E+00  9.383799408772E+00  9.496405001677E+00
  9.610361861697E+00  9.725686204038E+00  9.842394438486E+00  9.960503171748E+00
  1.008002920981E+01  1.020098956033E+01  1.032340143505E+01  1.044728225227E+01
  1.057264963930E+01  1.069952143497E+01  1.082791569219E+01  1.095785068050E+01
  1.108934488866E+01  1.122241702733E+01  1.135708603165E+01  1.149337106403E+01
  1.163129151680E+01  1.177086701500E+01  1.191211741918E+01  1.205506282821E+01
  1.219972358215E+01  1.234612026514E+01  1.249427370832E+01  1.264420499282E+01
  1.279593545273E+01  1.294948667817E+01  1.310488051830E+01  1.326213908452E+01
  1.342128475354E+01  1.358234017058E+01  1.374532825263E+01  1.391027219166E+01
  1.407719545796E+01  1.424612180345E+01  1.441707526510E+01  1.459008016828E+01
  1.476516113030E+01  1.494234306386E+01  1.512165118063E+01  1.530311099479E+01
  1.548674832673E+01  1.567258930665E+01  1.586066037833E+01  1.605098830287E+01
  1.624360016251E+01  1.643852336446E+01  1.663578564483E+01  1.683541507257E+01
  1.703744005344E+01  1.724188933408E+01  1.744879200609E+01  1.765817751016E+01
  1.787007564028E+01  1.808451654797E+01  1.830153074654E+01  1.852114911550E+01
  1.874340290489E+01  1.896832373975E+01  1.919594362462E+01  1.942629494812E+01
  1.965941048750E+01  1.989532341335E+01  2.013406729431E+01  2.037567610184E+01
  2.062018421506E+01  2.086762642564E+01  2.111803794275E+01  2.137145439806E+01
  2.162791185084E+01  2.188744679305E+01  2.215009615457E+01  2.241589730842E+01
  2.268488807612E+01  2.295710673303E+01  2.323259201383E+01  2.351138311800E+01
  2.379351971541E+01  2.407904195200E+01  2.436799045542E+01  2.466040634089E+01
  2.495633121698E+01  2.525580719158E+01  2.555887687788E+01  2.586558340041E+01
  2.617597040122E+01  2.649008204603E+01  2.680796303059E+01  2.712965858695E+01
  2.745521449000E+01  2.778467706388E+01  2.811809318864E+01  2.845551030691E+01
  2.879697643059E+01  2.914254014776E+01  2.949225062953E+01  2.984615763708E+01
  3.020431152873E+01  3.056676326707E+01  3.093356442628E+01  3.130476719939E+01
  3.168042440579E+01  3.206058949866E+01  3.244531657264E+01  3.283466037151E+01
  3.322867629597E+01  3.362742041152E+01  3.403094945646E+01  3.443932084994E+01
  3.485259270014E+01  3.527082381254E+01  3.569407369829E+01  3.612240258267E+01
  3.655587141366E+01  3.699454187062E+01  3.743847637307E+01  3.788773808955E+01
  3.834239094662E+01  3.880249963798E+01  3.926812963364E+01  3.973934718924E+01
  4.021621935551E+01  4.069881398778E+01  4.118719975563E+01  4.168144615270E+01
  4.218162350653E+01  4.268780298861E+01  4.320005662447E+01  4.371845730397E+01
  4.424307879162E+01
</grid-data>
</grid>
<valence-charge total-charge="3" is-unscreening-charge="yes"
 rescaled-to-z-pseudo="no">
<radfunc>
<data npts="457">
  3.515314924858E+01  3.514915940731E+01  3.513723335328E+01  3.511734107731E+01
  3.508969342249E+01  3.505335638347E+01  3.500707276254E+01  3.495411179561E+01
  3.489461101425E+01  3.482528805684E+01  3.474723227877E+01  3.466249083583E+01
  3.456021474242E+01  3.445356007946E+01  3.432795854289E+01  3.420275334648E+01
  3.405886576721E+01  3.392276194408E+01  3.377008798408E+01  3.359892196030E+01
  3.340714455756E+01  3.323732408089E+01  3.305153027541E+01  3.284837327782E+01
  3.262636578594E+01  3.238392132823E+01  3.211935381118E+01  3.190534003281E+01
  3.167709197270E+01  3.143379251400E+01  3.117459745225E+01  3.089863791247E+01
  3.060502346425E+01  3.029284603176E+01  2.996118470268E+01  2.960911154640E+01
  2.923569855693E+01  2.884002583942E+01  2.856343091534E+01  2.827628045481E+01
  2.797832097618E+01  2.766930803141E+01  2.734900812782E+01  2.701720080565E+01
  2.667368087499E+01  2.631826081418E+01  2.595077333059E+01  2.557107408264E+01
  2.517904455976E+01  2.477459511456E+01  2.435766813858E+01  2.392824136965E+01
  2.348633131526E+01  2.303199677205E+01  2.256534241711E+01  2.208652244174E+01
  2.159574419260E+01  2.109327177985E+01  2.057942960528E+01  2.005460575718E+01
  1.951925521217E+01  1.897390277750E+01  1.841914570081E+01  1.785565586828E+01
  1.728418150626E+01  1.670554829677E+01  1.612065981355E+01  1.582617344358E+01
  1.553049718292E+01  1.523376559164E+01  1.493611787350E+01  1.463769778382E+01
  1.433865352029E+01  1.403913759591E+01  1.373930669352E+01  1.343932150144E+01
  1.313934652967E+01  1.283954990622E+01  1.254010315337E+01  1.224118094336E+01
  1.194296083359E+01  1.164562298109E+01  1.134934983635E+01  1.105432581668E+01
  1.076073695942E+01  1.046877055526E+01  1.017861476242E+01  9.890458202250E+00
  9.604489537158E+00  9.320897031918E+00  9.039868099458E+00  8.761588832562E+00
  8.486243522954E+00  8.214014169491E+00  7.945079977328E+00  7.679616850075E+00
  7.417796877181E+00  7.159787818890E+00  6.905752591285E+00  6.655848754090E+00
  6.410228004013E+00  6.169035676526E+00  5.932410259084E+00  5.700482918862E+00
  5.473377048126E+00  5.251207830420E+00  5.034081830695E+00  4.822096612560E+00
  4.615340385696E+00  4.413891686455E+00  4.217819094491E+00  4.027180988156E+00
  3.842025341178E+00  3.662389562918E+00  3.488300384248E+00  3.319773790797E+00
  3.156815004995E+00  2.999418517971E+00  2.847568172005E+00  2.701237293820E+00
  2.560388878572E+00  2.424975823979E+00  2.294941213552E+00  2.170218647476E+00
  2.050732619214E+00  1.936398935487E+00  1.827125176842E+00  1.722811195626E+00
  1.623349647814E+00  1.528626554786E+00  1.438521890864E+00  1.352910192148E+00
  1.271661182017E+00  1.194640408481E+00  1.121709888525E+00  1.052728754524E+00
  9.875538978773E-01  9.260406051007E-01  8.680431817837E-01  8.134155600516E-01
  7.620118854473E-01  7.136870794873E-01  6.682973745247E-01  6.257008179659E-01
  5.857577433349E-01  5.483312061371E-01  5.132873829515E-01  4.804959326402E-01
  4.498303190238E-01  4.211680947943E-01  3.943911468322E-01  3.693859034370E-01
  3.460435042770E-01  3.242599340947E-01  3.039361213728E-01  2.849780032658E-01
  2.672965581418E-01  2.508078070533E-01  2.354327853888E-01  2.210974858422E-01
  2.077327737145E-01  1.952742754251E-01  1.836622410104E-01  1.728413813197E-01
  1.627606806324E-01  1.533731855206E-01  1.446357709957E-01  1.365088853121E-01
  1.289561716747E-01  1.219436852358E-01  1.154389474234E-01  1.094109262749E-01
  1.038300013566E-01  9.866793724103E-02  9.389785587851E-02  8.949420827140E-02
  8.543274484470E-02  8.169048365405E-02  7.824567518416E-02  7.507776208895E-02
  7.216733191135E-02  6.949606077034E-02  6.704664648494E-02  6.480273093729E-02
  6.274881389471E-02  6.087016388851E-02  5.915273525640E-02  5.758310247041E-02
  5.614842153796E-02  5.483642279833E-02  5.363543130561E-02  5.253440362347E-02
  5.152296661987E-02  5.059144579279E-02  4.973087605509E-02  4.893299381056E-02
  4.819021335506E-02  4.749559248176E-02  4.684279216421E-02  4.622603420760E-02
  4.564005951385E-02  4.508008850205E-02  4.454178440964E-02  4.402121967055E-02
  4.351484526481E-02  4.301946278741E-02  4.253219893476E-02  4.205048210971E-02
  4.157202087567E-02  4.109478402782E-02  4.061698208796E-02  4.013705006359E-02
  3.965363134059E-02  3.916556260218E-02  3.867185968507E-02  3.817170429762E-02
  3.766443153612E-02  3.714951814316E-02  3.662657145902E-02  3.609531902144E-02
  3.555559877395E-02  3.500734984548E-02  3.445060386734E-02  3.388547679580E-02
  3.331216121069E-02  3.273091906248E-02  3.214207484201E-02  3.154600914867E-02
  3.094315263453E-02  3.033398030335E-02  2.971900614464E-02  2.909877808455E-02
  2.847387323635E-02  2.784489343452E-02  2.721246103770E-02  2.657721498656E-02
  2.593980710372E-02  2.530089862392E-02  2.466115694303E-02  2.402125257586E-02
  2.338185631290E-02  2.274363656703E-02  2.210725690190E-02  2.147337373385E-02
  2.084263420013E-02  2.021567418618E-02  1.959311650528E-02  1.897556922407E-02
  1.836362412752E-02  1.775785531726E-02  1.715881793699E-02  1.656704701887E-02
  1.598305644460E-02  1.540733801505E-02  1.484036062163E-02  1.428256951330E-02
  1.373438565208E-02  1.319620515066E-02  1.266839878512E-02  1.215131157628E-02
  1.164526243331E-02  1.115054385368E-02  1.066742167432E-02  1.019613486972E-02
  9.736895393882E-03  9.289888064529E-03  8.855270489395E-03  8.433173036490E-03
  8.023698851763E-03  7.626923929512E-03  7.242897242428E-03  6.871640939462E-03
  6.513150620549E-03  6.167395697587E-03  5.834319850785E-03  5.513841588624E-03
  5.205854918160E-03  4.910230129694E-03  4.626814702509E-03  4.355434320127E-03
  4.095894004509E-03  3.847979355351E-03  3.611457886847E-03  3.386080450273E-03
  3.171582728616E-03  2.967686787926E-03  2.774102668954E-03  2.590530002140E-03
  2.416659628956E-03  2.252175213050E-03  2.096754825465E-03  1.950072489369E-03
  1.811799671169E-03  1.681606706495E-03  1.559164151241E-03  1.444144049655E-03
  1.336221113237E-03  1.235073805902E-03  1.140385332531E-03  1.051844529509E-03
  9.691466572662E-04  8.919940960386E-04  8.200969471466E-04  7.531735429746E-04
  6.909508696925E-04  6.331649072365E-04  5.795608915139E-04  5.298935044414E-04
  4.839269973051E-04  4.414352530541E-04  4.022017934098E-04  3.660197364456E-04
  3.326917101352E-04  3.020297272203E-04  2.738550264842E-04  2.479978852317E-04
  2.242974074544E-04  2.026012918198E-04  1.827655832738E-04  1.646544116822E-04
  1.481397205884E-04  1.331009888138E-04  1.194249472979E-04  1.070052932630E-04
  9.574240349828E-05  8.554304829587E-05  7.632010733506E-05  6.799228860196E-05
  6.048385125305E-05  5.372433317646E-05  4.764828387637E-05  4.219500319924E-05
  3.730828633422E-05  3.293617544987E-05  2.903071827336E-05  2.554773387297E-05
  2.244658586776E-05  1.968996325675E-05  1.724366903239E-05  1.507641671770E-05
  1.315963494105E-05  1.146728013791E-05  9.975657442508E-06  8.663249805507E-06
  7.510555345563E-06  6.499932913391E-06  5.615455817277E-06  4.842773628910E-06
  4.168981958683E-06  3.582500060654E-06  3.072956099622E-06  2.631079886763E-06
  2.248602866381E-06  1.918165114787E-06  1.633229093581E-06  1.387999883602E-06
  1.177351612862E-06  9.967597817613E-07  8.422391818496E-07  7.102871002027E-07
  5.978315000417E-07  5.021838692998E-07  4.209964322621E-07  3.522234249255E-07
  2.940861420987E-07  2.450414732422E-07  2.037536543707E-07  1.690689747696E-07
  1.399931895628E-07  1.156714020959E-07  9.537019345177E-08  7.846179000294E-08
  6.441007355770E-08  5.275825222336E-08  4.311802345117E-08  3.516007373983E-08
  2.860577205677E-08  2.321992611733E-08  1.880448218017E-08  1.519305992966E-08
  1.224622429219E-08  9.847405656906E-09  7.899388933530E-09  6.321300185509E-09
  5.046027234762E-09  4.018017662641E-09  3.191404052751E-09  2.528412161678E-09
  1.998012993234E-09  1.574784522674E-09  1.237953102793E-09  9.705884180387E-10
  7.589292698741E-10  5.918205103792E-10  4.602441242680E-10  3.569298238954E-10
  2.760325975840E-10  2.128664673757E-10  1.636852949253E-10  1.255028487143E-10
  9.594553522001E-11  7.313222237645E-11  5.557646505285E-11  4.210719699256E-11
  3.180459764331E-11  2.394838989157E-11  1.797628869272E-11  1.345071235273E-11
  1.003219784559E-11  7.458237925451E-12  5.526488699586E-12  4.081488566353E-12
  3.004188898998E-12  2.203728682964E-12  1.610993894662E-12  1.173591520493E-12
  8.519409823127E-13  6.162451029505E-13  4.441509362435E-13  3.189497598174E-13
  2.281969308120E-13  1.626575109722E-13  1.155037238016E-13  8.170636297245E-14
  5.757501253553E-14  4.041201083478E-14  2.825301969773E-14  1.967327915227E-14
  1.364348530911E-14  9.423007826241E-15  6.481091069664E-15  4.438942053314E-15
  3.027343981232E-15  2.055762316396E-15  1.389922184614E-15  9.356035728276E-16
  6.269806243376E-16  4.182673981298E-16  2.777589451766E-16  1.835999035153E-16
  1.207933755182E-16  7.909621225511E-17  5.154487415102E-17  3.342778004821E-17
  2.157230570219E-17  1.385246266727E-17  8.850603891154E-18  5.626108428503E-18
  3.558000700306E-18  2.238410981422E-18  1.400819825846E-18  8.719785738449E-19
  5.398618128690E-19  0.000000000000E+00  0.000000000000E+00  0.000000000000E+00
  0.000000000000E+00
</data>
</radfunc>
</valence-charge>
<semilocal-potentials set="lj">
<slps n="1" l="s" j="0.5" rc="1.40824178834" eref="-1.88790719080">
<radfunc>
<data npts="256">
 -1.166597283710E+01 -1.166556406628E+01 -1.166434172651E+01 -1.166230214575E+01
 -1.165946587794E+01 -1.165573551349E+01 -1.165097960482E+01 -1.164553145780E+01
 -1.163940275786E+01 -1.163225190941E+01 -1.162418673306E+01 -1.161541446758E+01
 -1.160480433904E+01 -1.159371335176E+01 -1.158061697686E+01 -1.156752384394E+01
 -1.155242967188E+01 -1.153810501492E+01 -1.152198147239E+01 -1.150383529758E+01
 -1.148341546277E+01 -1.146525450456E+01 -1.144529927656E+01 -1.142337497600E+01
 -1.139929024990E+01 -1.137283571873E+01 -1.134378238486E+01 -1.132013718530E+01
 -1.129477575411E+01 -1.126757622969E+01 -1.123840847195E+01 -1.120713355080E+01
 -1.117360321014E+01 -1.113765930725E+01 -1.109913322807E+01 -1.105784527889E+01
 -1.101360405570E+01 -1.096620579283E+01 -1.093274653674E+01 -1.089772048612E+01
 -1.086105724690E+01 -1.082268353314E+01 -1.078252307517E+01 -1.074049652828E+01
 -1.069652138237E+01 -1.065051187347E+01 -1.060237889791E+01 -1.055202993016E+01
 -1.049936894560E+01 -1.044429634956E+01 -1.038670891435E+01 -1.032649972617E+01
 -1.026355814413E+01 -1.019776977408E+01 -1.012901646014E+01 -1.005717629757E+01
 -9.982123670918E+00 -9.903729322205E+00 -9.821860454416E+00 -9.736380876511E+00
 -9.647151196975E+00 -9.554029073944E+00 -9.456869531079E+00 -9.355525349560E+00
 -9.249847548006E+00 -9.139685963584E+00 -9.024889949222E+00 -8.965707022447E+00
 -8.905309203655E+00 -8.843677920170E+00 -8.780794752838E+00 -8.716641476438E+00
 -8.651200103314E+00 -8.584452930435E+00 -8.516382590059E+00 -8.446972104244E+00
 -8.376204943402E+00 -8.304065089123E+00 -8.230537101511E+00 -8.155606191256E+00
 -8.079258296686E+00 -8.001480166039E+00 -7.922259445212E+00 -7.841584771218E+00
 -7.759445871611E+00 -7.675833670125E+00 -7.590740398773E+00 -7.504159716639E+00
 -7.416086835635E+00 -7.326518653433E+00 -7.235453893831E+00 -7.142893254793E+00
 -7.048839564405E+00 -6.953297945014E+00 -6.856275985799E+00 -6.757783924096E+00
 -6.657834835772E+00 -6.556444835020E+00 -6.453633284009E+00 -6.349423012838E+00
 -6.243840550394E+00 -6.136916366736E+00 -6.028685127785E+00 -5.919185963173E+00
 -5.808462748228E+00 -5.696564401178E+00 -5.583545196708E+00 -5.469465097088E+00
 -5.354390102029E+00 -5.238392618363E+00 -5.121551850432E+00 -5.003954211716E+00
 -4.885693757777E+00 -4.766872639868E+00 -4.647601577654E+00 -4.528000348373E+00
 -4.408198288327E+00 -4.288334800958E+00 -4.168559863834E+00 -4.049034524730E+00
 -3.929931374621E+00 -3.811434982889E+00 -3.693742277460E+00 -3.577062849880E+00
 -3.461619162803E+00 -3.347646634837E+00 -3.235393575464E+00 -3.125120940796E+00
 -3.017101879350E+00 -2.911621035947E+00 -2.808973581301E+00 -2.709463934970E+00
 -2.613404150114E+00 -2.521111930149E+00 -2.432908249809E+00 -2.349114556555E+00
 -2.270049532731E+00 -2.196025404458E+00 -2.127343790054E+00 -2.064291088906E+00
 -2.007133421193E+00 -1.956111139733E+00 -1.911432947558E+00 -1.873269668381E+00
 -1.841747731986E+00 -1.816942452337E+00 -1.798871192698E+00 -1.787486528811E+00
 -1.782669537788E+00 -1.784223356252E+00 -1.791867165959E+00 -1.805230778042E+00
 -1.823849997911E+00 -1.847162961467E+00 -1.874507639631E+00 -1.905120712885E+00
 -1.938138021394E+00 -1.972596800841E+00 -2.007439921324E+00 -2.041522359154E+00
 -2.073620151989E+00 -2.102442119868E+00 -2.126644681513E+00 -2.144850159912E+00
 -2.155669103024E+00 -2.157726578872E+00 -2.149693973355E+00 -2.130337649229E+00
 -2.105063237775E+00 -2.080097956005E+00 -2.055433319610E+00 -2.031060759471E+00
 -2.006977367139E+00 -1.983179672930E+00 -1.959664308057E+00 -1.936427927991E+00
 -1.913467214779E+00 -1.890778869222E+00 -1.868359603477E+00 -1.846206135195E+00
 -1.824315186166E+00 -1.802683489357E+00 -1.781307808054E+00 -1.760184968364E+00
 -1.739311900814E+00 -1.718685678889E+00 -1.698303536333E+00 -1.678162847382E+00
 -1.658261068536E+00 -1.638595660725E+00 -1.619164022471E+00 -1.599963458383E+00
 -1.580991188402E+00 -1.562244385425E+00 -1.543720221627E+00 -1.525415907047E+00
 -1.507328712559E+00 -1.489455977505E+00 -1.471795106754E+00 -1.454343562702E+00
 -1.437098856269E+00 -1.420058539102E+00 -1.403220197712E+00 -1.386581449484E+00
 -1.370139940171E+00 -1.353893342422E+00 -1.337839354977E+00 -1.321975702244E+00
 -1.306300134086E+00 -1.290810425701E+00 -1.275504377531E+00 -1.260379815164E+00
 -1.245434589217E+00 -1.230666575191E+00 -1.216073673300E+00 -1.201653808283E+00
 -1.187404929194E+00 -1.173325009173E+00 -1.159412045215E+00 -1.145664057929E+00
 -1.132079091282E+00 -1.118655212355E+00 -1.105390511081E+00 -1.092283099998E+00
 -1.079331113983E+00 -1.066532710008E+00 -1.053886066876E+00 -1.041389384975E+00
 -1.029040886023E+00 -1.016838812820E+00 -1.004781429002E+00 -9.928670187940E-01
 -9.810938867692E-01 -9.694603576077E-01 -9.579647758590E-01 -9.466055057075E-01
 -9.353809307390E-01 -9.242894537111E-01 -9.133294963261E-01 -9.024994990055E-01
 -8.917979206682E-01 -8.812232385110E-01 -8.707739477911E-01 -8.604485616124E-01
 -8.502456107127E-01 -8.401636432555E-01 -8.302012246221E-01 -8.203569372083E-01
 -8.106293802220E-01 -8.010171694843E-01 -7.915189372322E-01 -7.821333319250E-01
 -7.728590180512E-01 -7.636946759400E-01 -7.546390015730E-01 -7.456907063999E-01
</data>
</radfunc>
</slps>
<slps n="2" l="p" j="1.5" rc="1.10934588670" eref="-0.810768817175E-08">
<radfunc>
<data npts="256">
 -8.538061399169E+00 -8.538070492783E+00 -8.538096221404E+00 -8.538135284998E+00
 -8.538181654298E+00 -8.538228594917E+00 -8.538265373684E+00 -8.538275858650E+00
 -8.538247450839E+00 -8.538160785004E+00 -8.537994292666E+00 -8.537731030931E+00
 -8.537299103064E+00 -8.536715915489E+00 -8.535855714444E+00 -8.534812016384E+00
 -8.533383615221E+00 -8.531807771941E+00 -8.529780891878E+00 -8.527183730579E+00
 -8.523867517745E+00 -8.520573930274E+00 -8.516587937583E+00 -8.511773779595E+00
 -8.505971171560E+00 -8.498991460393E+00 -8.490613364166E+00 -8.483258098098E+00
 -8.474847208536E+00 -8.465241621407E+00 -8.454286369024E+00 -8.441809313245E+00
 -8.427619898073E+00 -8.411507974041E+00 -8.393242747575E+00 -8.372571921117E+00
 -8.349221103709E+00 -8.322893587039E+00 -8.303531655484E+00 -8.282605763654E+00
 -8.260012155615E+00 -8.235643329180E+00 -8.209388385500E+00 -8.181133472551E+00
 -8.150762332462E+00 -8.118156962577E+00 -8.083198399712E+00 -8.045767636293E+00
 -8.005746675833E+00 -7.963019733404E+00 -7.917474584333E+00 -7.869004061158E+00
 -7.817507694825E+00 -7.762893491126E+00 -7.705079827329E+00 -7.643997446780E+00
 -7.579591521009E+00 -7.511823739445E+00 -7.440674376402E+00 -7.366144273760E+00
 -7.288256665886E+00 -7.207058761489E+00 -7.122622985632E+00 -7.035047775162E+00
 -6.944457813143E+00 -6.851003584003E+00 -6.754860132481E+00 -6.705840857556E+00
 -6.656224917862E+00 -6.606039982819E+00 -6.555314672405E+00 -6.504078400496E+00
 -6.452361201283E+00 -6.400193539158E+00 -6.347606102704E+00 -6.294629583755E+00
 -6.241294442843E+00 -6.187630662689E+00 -6.133667491831E+00 -6.079433180899E+00
 -6.024954714476E+00 -5.970257541976E+00 -5.915365311438E+00 -5.860299610605E+00
 -5.805079720120E+00 -5.749722384166E+00 -5.694241604237E+00 -5.638648462152E+00
 -5.582950978716E+00 -5.527154014673E+00 -5.471259220739E+00 -5.415265043510E+00
 -5.359166793938E+00 -5.302956784776E+00 -5.246624542919E+00 -5.190157101943E+00
 -5.133539379183E+00 -5.076754640618E+00 -5.019785055401E+00 -4.962612340206E+00
 -4.905218491634E+00 -4.847586602670E+00 -4.789701756701E+00 -4.731551989843E+00
 -4.673129309302E+00 -4.614430752337E+00 -4.555459467016E+00 -4.496225792537E+00
 -4.436748313446E+00 -4.377054858747E+00 -4.317183413741E+00 -4.257182909680E+00
 -4.197113854009E+00 -4.137048762376E+00 -4.077072352866E+00 -4.017281463254E+00
 -3.957784653746E+00 -3.898701460809E+00 -3.840161272611E+00 -3.782301803386E+00
 -3.725267152864E+00 -3.669205447965E+00 -3.614266077065E+00 -3.560596542426E+00
 -3.508338973462E+00 -3.457626362169E+00 -3.408578601728E+00 -3.361298429302E+00
 -3.315867393690E+00 -3.272341986636E+00 -3.230750092299E+00 -3.191087921291E+00
 -3.153317602687E+00 -3.117365608196E+00 -3.083122176085E+00 -3.050441887521E+00
 -3.019145523947E+00 -2.989023300474E+00 -2.959839527074E+00 -2.931338696904E+00
 -2.903252940474E+00 -2.875310716958E+00 -2.847246541996E+00 -2.818811477462E+00
 -2.789784036274E+00 -2.759981088279E+00 -2.729268295850E+00 -2.697569564897E+00
 -2.665564859925E+00 -2.633985934697E+00 -2.602826873902E+00 -2.572089792219E+00
 -2.541774516453E+00 -2.511878454488E+00 -2.482396497127E+00 -2.453320956638E+00
 -2.424641547174E+00 -2.396345414345E+00 -2.368417224351E+00 -2.340839327834E+00
 -2.313592020689E+00 -2.286653934359E+00 -2.260002602828E+00 -2.233615273872E+00
 -2.207470107087E+00 -2.181547266105E+00 -2.155830904852E+00 -2.130322800607E+00
 -2.105063237775E+00 -2.080097956005E+00 -2.055433319610E+00 -2.031060759471E+00
 -2.006977367139E+00 -1.983179672930E+00 -1.959664308057E+00 -1.936427927991E+00
 -1.913467214779E+00 -1.890778869222E+00 -1.868359603477E+00 -1.846206135195E+00
 -1.824315186166E+00 -1.802683489357E+00 -1.781307808054E+00 -1.760184968364E+00
 -1.739311900814E+00 -1.718685678889E+00 -1.698303536333E+00 -1.678162847382E+00
 -1.658261068536E+00 -1.638595660725E+00 -1.619164022471E+00 -1.599963458383E+00
 -1.580991188402E+00 -1.562244385425E+00 -1.543720221627E+00 -1.525415907047E+00
 -1.507328712559E+00 -1.489455977505E+00 -1.471795106754E+00 -1.454343562702E+00
 -1.437098856269E+00 -1.420058539102E+00 -1.403220197712E+00 -1.386581449484E+00