<?xml version="1.0" encoding="UTF-8" ?>
<psml version="1.1" energy_unit="hartree" length_unit="bohr"
 uuid="384adaf0-53a1-11e8-7e7b-f28afbc237a8"
 xmlns="http://esl.cecam.org/PSML/ns/1.1">
<provenance creator="ONCVPSP-3.3.0+psml-3.3.0-73 (fully-relativistic)"
 date="2018-05-09">
<annotation action="semilocal-pseudopotential-generation"
 action-cont="projectors-generation" />
<input-file name="oncvpsp-input">
<![CDATA[# atsym z nc nv iexc psfile
Rh 45 6 4 -116133 upf
# n l f
1 0 2.0
2 0 2.0
2 1 6.0
3 0 2.0
3 1 6.0
3 2 10.0
4 0 2.0
4 1 6.0
4 2 8.0
5 0 1.0
# lmax
2
# l rc ep ncon nbas qcut
0 1.4 0.0 4 7 9.4
1 1.4 0.0 4 7 9.4
2 1.35 0.0 4 7 9.4
# lloc lpopt rc5 dvloc0
4 5 1.3 0.0
# l nproj debl
0 2 1.0
1 2 1.0
2 2 1.0
# icmod fcfact rcfact
3 7.0 1.23
# epsh1 epsh2 depsh
-12.0 12.0 0.02
# rlmax drl
6.0 0.01
 0
]]>
</input-file>
</provenance>
<pseudo-atom-spec atomic-label="Rh" atomic-number="45" z-pseudo="17"
 flavor="Hamann&apos;s oncvpsp" relativity="dirac" spin-dft="no"
 core-corrections="yes">
<annotation pseudo-energy="-110.635124052" />
<exchange-correlation>
<annotation oncvpsp-xc-code="-116133" oncvpsp-xc-type="libxc-interface" />
<libxc-info number-of-functionals="2">
<functional name="Perdew, Burke &amp; Ernzerhof SOL (GGA)" type="exchange"
 id="116" />
<functional name="Perdew, Burke &amp; Ernzerhof SOL (GGA)" type="correlation"
 id="133" />
</libxc-info>
</exchange-correlation>
<valence-configuration total-valence-charge="17">
<shell n="4" l="s" occupation="2" />
<shell n="4" l="p" occupation="6" />
<shell n="4" l="d" occupation="8" />
<shell n="5" l="s" occupation="1" />
</valence-configuration>
</pseudo-atom-spec>
<grid npts="457">
<annotation type="sampled from oncvpsp log grid"
 recipe="r(i:1..N) = r1*exp(a*(i-1)) + r=0; resampled"
 recipe-cont="r1: scale; a: step" scale="0.111111111111E-04"
 step="0.119285708653E-01" delta="0.500000000000E-02" rmax="44.2313729721" />
<grid-data>
  0.000000000000E+00  5.050802712143E-03  1.008858204474E-02  1.513448179686E-02
  2.015115091088E-02  2.527723656897E-02  3.059269895389E-02  3.572435987247E-02
  4.073334664942E-02  4.589392675613E-02  5.109516791654E-02  5.621133901271E-02
  6.183979351557E-02  6.722512498246E-02  7.307943917649E-02  7.850155885119E-02
  8.432597200403E-02  8.950842564066E-02  9.500937932012E-02  1.008484072218E-01
  1.070462865031E-01  1.122777383704E-01  1.177648561701E-01  1.235201345346E-01
  1.295566787210E-01  1.358882344523E-01  1.425292192178E-01  1.477220900228E-01
  1.531041564703E-01  1.586823116628E-01  1.644636998444E-01  1.704557255504E-01
  1.766660630911E-01  1.831026663806E-01  1.897737791236E-01  1.966879453737E-01
  2.038540204763E-01  2.112811824101E-01  2.163823552782E-01  2.216066908640E-01
  2.269571628082E-01  2.324368165471E-01  2.380487710458E-01  2.437962205739E-01
  2.496824365235E-01  2.557107692709E-01  2.618846500842E-01  2.682075930758E-01
  2.746831972030E-01  2.813151483163E-01  2.881072212572E-01  2.950632820073E-01
  3.021872898880E-01  3.094832998151E-01  3.169554646058E-01  3.246080373433E-01
  3.324453737969E-01  3.404719349019E-01  3.486922892981E-01  3.571111159309E-01
  3.657332067140E-01  3.745634692569E-01  3.836069296586E-01  3.928687353683E-01
  4.023541581150E-01  4.120685969086E-01  4.220175811123E-01  4.270817920857E-01
  4.322067735907E-01  4.373932548738E-01  4.426419739323E-01  4.479536776194E-01
  4.533291217509E-01  4.587690712119E-01  4.642743000664E-01  4.698455916672E-01
  4.754837387672E-01  4.811895436324E-01  4.869638181560E-01  4.928073839739E-01
  4.987210725816E-01  5.047057254526E-01  5.107621941580E-01  5.168913404879E-01
  5.230940365738E-01  5.293711650126E-01  5.357236189928E-01  5.421523024207E-01
  5.486581300498E-01  5.552420276104E-01  5.619049319417E-01  5.686477911250E-01
  5.754715646185E-01  5.823772233939E-01  5.893657500746E-01  5.964381390755E-01
  6.035953967444E-01  6.108385415054E-01  6.181686040034E-01  6.255866272515E-01
  6.330936667785E-01  6.406907907798E-01  6.483790802692E-01  6.561596292324E-01
  6.640335447832E-01  6.720019473206E-01  6.800659706884E-01  6.882267623367E-01
  6.964854834847E-01  7.048433092866E-01  7.133014289980E-01  7.218610461460E-01
  7.305233786997E-01  7.392896592441E-01  7.481611351551E-01  7.571390687769E-01
  7.662247376022E-01  7.754194344535E-01  7.847244676669E-01  7.941411612789E-01
  8.036708552143E-01  8.133149054768E-01  8.230746843426E-01  8.329515805547E-01
  8.429469995213E-01  8.530623635156E-01  8.632991118778E-01  8.736587012203E-01
  8.841426056349E-01  8.947523169026E-01  9.054893447054E-01  9.163552168419E-01
  9.273514794440E-01  9.384796971973E-01  9.497414535637E-01  9.611383510064E-01
  9.726720112185E-01  9.843440753531E-01  9.961562042574E-01  1.008110078708E+00
  1.020207399653E+00  1.032449888449E+00  1.044839287110E+00  1.057377358555E+00
  1.070065886858E+00  1.082906677500E+00  1.095901557630E+00  1.109052376322E+00
  1.122361004838E+00  1.135829336896E+00  1.149459288939E+00  1.163252800406E+00
  1.177211834011E+00  1.191338376019E+00  1.205634436531E+00  1.220102049770E+00
  1.234743274367E+00  1.249560193659E+00  1.264554915983E+00  1.279729574975E+00
  1.295086329875E+00  1.310627365833E+00  1.326354894223E+00  1.342271152954E+00
  1.358378406789E+00  1.374678947671E+00  1.391175095043E+00  1.407869196183E+00
  1.424763626537E+00  1.441860790056E+00  1.459163119537E+00  1.476673076971E+00
  1.494393153895E+00  1.512325871741E+00  1.530473782202E+00  1.548839467589E+00
  1.567425541200E+00  1.586234647694E+00  1.605269463467E+00  1.624532697028E+00
  1.644027089392E+00  1.663755414465E+00  1.683720479439E+00  1.703925125192E+00
  1.724372226694E+00  1.745064693415E+00  1.766005469736E+00  1.787197535372E+00
  1.808643905797E+00  1.830347632666E+00  1.852311804258E+00  1.874539545910E+00
  1.897034020460E+00  1.919798428706E+00  1.942836009850E+00  1.966150041969E+00
  1.989743842472E+00  2.013620768582E+00  2.037784217805E+00  2.062237628419E+00
  2.086984479960E+00  2.112028293719E+00  2.137372633244E+00  2.163021104843E+00
  2.188977358101E+00  2.215245086398E+00  2.241828027435E+00  2.268729963764E+00
  2.295954723329E+00  2.323506180009E+00  2.351388254169E+00  2.379604913219E+00
  2.408160172178E+00  2.437058094244E+00  2.466302791375E+00  2.495898424871E+00
  2.525849205970E+00  2.556159396442E+00  2.586833309199E+00  2.617875308909E+00
  2.649289812616E+00  2.681081290368E+00  2.713254265852E+00  2.745813317042E+00
  2.778763076847E+00  2.812108233769E+00  2.845853532574E+00  2.880003774965E+00
  2.914563820265E+00  2.949538586108E+00  2.984933049141E+00  3.020752245731E+00
  3.057001272680E+00  3.093685287952E+00  3.130809511407E+00  3.168379225544E+00
  3.206399776250E+00  3.244876573566E+00  3.283815092448E+00  3.323220873558E+00
  3.363099524040E+00  3.403456718329E+00  3.444298198949E+00  3.485629777336E+00
  3.527457334664E+00  3.569786822680E+00  3.612624264552E+00  3.655975755727E+00
  3.699847464796E+00  3.744245634373E+00  3.789176581986E+00  3.834646700970E+00
  3.880662461381E+00  3.927230410918E+00  3.974357175849E+00  4.022049461959E+00
  4.070314055502E+00  4.119157824168E+00  4.168587718059E+00  4.218610770675E+00
  4.269234099923E+00  4.320464909122E+00  4.372310488032E+00  4.424778213888E+00
  4.477875552455E+00  4.531610059084E+00  4.585989379793E+00  4.641021252351E+00
  4.696713507379E+00  4.753074069468E+00  4.810110958301E+00  4.867832289801E+00
  4.926246277279E+00  4.985361232606E+00  5.045185567397E+00  5.105727794206E+00
  5.166996527736E+00  5.229000486069E+00  5.291748491902E+00  5.355249473805E+00
  5.419512467491E+00  5.484546617100E+00  5.550361176506E+00  5.616965510624E+00
  5.684369096751E+00  5.752581525912E+00  5.821612504223E+00  5.891471854274E+00
  5.962169516525E+00  6.033715550723E+00  6.106120137332E+00  6.179393578980E+00
  6.253546301928E+00  6.328588857551E+00  6.404531923842E+00  6.481386306928E+00
  6.559162942611E+00  6.637872897922E+00  6.717527372697E+00  6.798137701170E+00
  6.879715353584E+00  6.962271937827E+00  7.045819201080E+00  7.130369031493E+00
  7.215933459871E+00  7.302524661390E+00  7.390154957327E+00  7.478836816814E+00
  7.568582858616E+00  7.659405852920E+00  7.751318723155E+00  7.844334547832E+00
  7.938466562406E+00  8.033728161155E+00  8.130132899089E+00  8.227694493878E+00
  8.326426827805E+00  8.426343949738E+00  8.527460077135E+00  8.629789598061E+00
  8.733347073238E+00  8.838147238117E+00  8.944205004974E+00  9.051535465034E+00
  9.160153890614E+00  9.270075737301E+00  9.381316646149E+00  9.493892445903E+00
  9.607819155254E+00  9.723112985117E+00  9.839790340938E+00  9.957867825029E+00
  1.007736223893E+01  1.019829058580E+01  1.032067007283E+01  1.044451811370E+01
  1.056985233106E+01  1.069669055904E+01  1.082505084575E+01  1.095495145589E+01
  1.108641087337E+01  1.121944780385E+01  1.135408117749E+01  1.149033015162E+01
  1.162821411344E+01  1.176775268280E+01  1.190896571500E+01  1.205187330358E+01
  1.219649578322E+01  1.234285373262E+01  1.249096797741E+01  1.264085959314E+01
  1.279254990826E+01  1.294606050716E+01  1.310141323324E+01  1.325863019204E+01
  1.341773375434E+01  1.357874655940E+01  1.374169151811E+01  1.390659181633E+01
  1.407347091812E+01  1.424235256914E+01  1.441326079997E+01  1.458621992957E+01
  1.476125456872E+01  1.493838962355E+01  1.511765029903E+01  1.529906210262E+01
  1.548265084785E+01  1.566844265803E+01  1.585646396992E+01  1.604674153756E+01
  1.623930243601E+01  1.643417406524E+01  1.663138415403E+01  1.683096076387E+01
  1.703293229304E+01  1.723732748056E+01  1.744417541032E+01  1.765350551525E+01
  1.786534758143E+01  1.807973175241E+01  1.829668853344E+01  1.851624879584E+01
  1.873844378139E+01  1.896330510677E+01  1.919086476805E+01  1.942115514526E+01
  1.965420900701E+01  1.989005951509E+01  2.012874022927E+01  2.037028511202E+01
  2.061472853337E+01  2.086210527577E+01  2.111245053908E+01  2.136579994555E+01
  2.162218954489E+01  2.188165581943E+01  2.214423568926E+01  2.240996651754E+01
  2.267888611575E+01  2.295103274913E+01  2.322644514212E+01  2.350516248383E+01
  2.378722443364E+01  2.407267112684E+01  2.436154318036E+01  2.465388169853E+01
  2.494972827891E+01  2.524912501825E+01  2.555211451847E+01  2.585873989270E+01
  2.616904477141E+01  2.648307330866E+01  2.680087018837E+01  2.712248063063E+01
  2.744795039820E+01  2.777732580298E+01  2.811065371261E+01  2.844798155716E+01
  2.878935733585E+01  2.913482962388E+01  2.948444757936E+01  2.983826095032E+01
  3.019632008172E+01  3.055867592270E+01  3.092538003377E+01  3.129648459418E+01
  3.167204240931E+01  3.205210691822E+01  3.243673220124E+01  3.282597298765E+01
  3.321988466351E+01  3.361852327947E+01  3.402194555882E+01  3.443020890553E+01
  3.484337141239E+01  3.526149186934E+01  3.568462977178E+01  3.611284532904E+01
  3.654619947299E+01  3.698475386666E+01  3.742857091306E+01  3.787771376402E+01
  3.833224632919E+01  3.879223328514E+01  3.925774008456E+01  3.972883296557E+01
  4.020557896116E+01  4.068804590869E+01  4.117630245960E+01  4.167041808911E+01
  4.217046310618E+01  4.267650866346E+01  4.318862676742E+01  4.370689028863E+01
  4.423137297209E+01
</grid-data>
</grid>
<valence-charge total-charge="17" is-unscreening-charge="yes"
 rescaled-to-z-pseudo="no">
<radfunc>
<data npts="457">
  3.683418209423E-01  3.695874286302E-01  3.733125773304E-01  3.795327736009E-01
  3.881921292598E-01  3.995979933559E-01  4.141670756191E-01  4.308945447757E-01
  4.497595788801E-01  4.718349630150E-01  4.968152777551E-01  5.240841392898E-01
  5.572022283111E-01  5.919794093478E-01  6.332510576608E-01  6.747337219193E-01
  7.228278320074E-01  7.687361245750E-01  8.207158481914E-01  8.795992312589E-01
  9.463385245642E-01  1.006113818144E+00  1.072242223457E+00  1.145427004127E+00
  1.226452720066E+00  1.316194649784E+00  1.415629122623E+00  1.497216022866E+00
  1.585369370516E+00  1.680636131569E+00  1.783608790301E+00  1.894928571409E+00
  2.015288691250E+00  2.145437573469E+00  2.286181943933E+00  2.438389695138E+00
  2.602992380533E+00  2.780987163867E+00  2.907613058429E+00  3.040994299161E+00
  3.181475831141E+00  3.329415475851E+00  3.485183510548E+00  3.649162056680E+00
  3.821744247055E+00  4.003333138296E+00  4.194340331819E+00  4.395184263218E+00
  4.606288116556E+00  4.828077316757E+00  5.060976550157E+00  5.305406260421E+00
  5.561778564605E+00  5.830492532384E+00  6.111928770471E+00  6.406443254415E+00
  6.714360351439E+00  7.035964981221E+00  7.371493866791E+00  7.721125835521E+00
  8.084971140919E+00  8.463059790121E+00  8.855328880105E+00  9.261608968222E+00
  9.681609530260E+00  1.011490359225E+01  1.056091166120E+01  1.078845657459E+01
  1.101888512496E+01  1.125207453588E+01  1.148788934313E+01  1.172618086965E+01
  1.196678670834E+01  1.220953021590E+01  1.245422002153E+01  1.270064955428E+01
  1.294859659341E+01  1.319782284621E+01  1.344807355813E+01  1.369907716041E+01
  1.395054496058E+01  1.420217088157E+01  1.445363125540E+01  1.470458467759E+01
  1.495467192894E+01  1.520351597109E+01  1.545072202278E+01  1.569587772376E+01
  1.593855339329E+01  1.617830239023E+01  1.641466158177E+01  1.664715192760E+01
  1.687527918618E+01  1.709853474958E+01  1.731639661282E+01  1.752833048343E+01
  1.773379103600E+01  1.793222331630E+01  1.812306429818E+01  1.830574459607E+01
  1.847969033437E+01  1.864432517420E+01  1.879907249625E+01  1.894335773741E+01
  1.907661087692E+01  1.919826906618E+01  1.930777939448E+01  1.940460178089E+01
  1.948821198046E+01  1.955810469085E+01  1.961379674290E+01  1.965483035691E+01
  1.968077644351E+01  1.969123792619E+01  1.968585306003E+01  1.966429871919E+01
  1.962629362349E+01  1.957160147294E+01  1.950003395703E+01  1.941145360458E+01
  1.930577643876E+01  1.918297440148E+01  1.904307751084E+01  1.888617571587E+01
  1.871242041366E+01  1.852202559503E+01  1.831526858733E+01  1.809249036530E+01
  1.785409540410E+01  1.760055105309E+01  1.733238641268E+01  1.705019070251E+01
  1.675461111455E+01  1.644635015105E+01  1.612616245406E+01  1.579485114031E+01
  1.545326366232E+01  1.510228722437E+01  1.474284378901E+01  1.437588471703E+01
  1.400238509089E+01  1.362333777739E+01  1.323974729151E+01  1.285262352760E+01
  1.246297542802E+01  1.207180466176E+01  1.168009938660E+01  1.128882816832E+01
  1.089893412852E+01  1.051132938930E+01  1.012688987830E+01  9.746450551208E+00
  9.370801081000E+00  9.000682054466E+00  8.636781706255E+00  8.279733210130E+00
  7.930112535728E+00  7.588436867736E+00  7.255163573250E+00  6.930689692526E+00
  6.615351918879E+00  6.309427025461E+00  6.013132690507E+00  5.726628668995E+00
  5.450018258273E+00  5.183350064191E+00  4.926620249805E+00  4.679775448162E+00
  4.442717405759E+00  4.215312380209E+00  3.997403093497E+00  3.788811349878E+00
  3.589340540699E+00  3.398778041571E+00  3.216897507627E+00  3.043461048041E+00
  2.878221278126E+00  2.720923245950E+00  2.571306231885E+00  2.429105420623E+00
  2.294053446228E+00  2.165881811660E+00  2.044322185090E+00  1.929107575984E+00
  1.819973394591E+00  1.716658398986E+00  1.618905534289E+00  1.526462668927E+00
  1.439083233252E+00  1.356526766072E+00  1.278559374446E+00  1.204954112571E+00
  1.135491285426E+00  1.069958682848E+00  1.008151749642E+00  9.498736972078E-01
  8.949355620668E-01  8.431562164327E-01  7.943623358375E-01  7.483883285654E-01
  7.050762314355E-01  6.642755762200E-01  6.258432307359E-01  5.896432183875E-01
  5.555465196773E-01  5.234308589400E-01  4.931804793001E-01  4.646859085961E-01
  4.378437187699E-01  4.125562809799E-01  3.887315184675E-01  3.662826589851E-01
  3.451279883874E-01  3.251906067879E-01  3.063981885005E-01  2.886827468100E-01
  2.719804044574E-01  2.562311705739E-01  2.413787246666E-01  2.273702081277E-01
  2.141560236325E-01  2.016896426834E-01  1.899274214719E-01  1.788284251436E-01
  1.683542604843E-01  1.584689169789E-01  1.491386161433E-01  1.403316689810E-01
  1.320183413786E-01  1.241707272196E-01  1.167626289727E-01  1.097694454853E-01
  1.031680667012E-01  9.693677500761E-02  9.105515290920E-02  8.550399672306E-02
  8.026523598821E-02  7.532185828371E-02  7.065783915462E-02  6.625807685029E-02
  6.210833158769E-02  5.819516906102E-02  5.450590792952E-02  5.102857102577E-02
  4.775184003897E-02  4.466501343918E-02  4.175796742136E-02  3.902111965993E-02
  3.644539567720E-02  3.402219764115E-02  3.174337541953E-02  2.960119972919E-02
  2.758833722974E-02  2.569782742158E-02  2.392306121736E-02  2.225776106534E-02
  2.069596250985E-02  1.923199708920E-02  1.786047645800E-02  1.657627765562E-02
  1.537452942543E-02  1.425059950395E-02  1.320008280200E-02  1.221879040434E-02
  1.130273931804E-02  1.044814290386E-02  9.651401928706E-03  8.909096180596E-03
  8.217976591790E-03  7.574957819094E-03  6.977111234417E-03  6.421658282451E-03
  5.905964166262E-03  5.427531825506E-03  4.983996175820E-03  4.573118581756E-03
  4.192781539223E-03  3.840983546928E-03  3.515834149538E-03  3.215549138294E-03
  2.938445897586E-03  2.682938888405E-03  2.447535261810E-03  2.230830597337E-03
  2.031504762914E-03  1.848317894080E-03  1.680106491356E-03  1.525779635376E-03
  1.384315319949E-03  1.254756903551E-03  1.136209679952E-03  1.027837568669E-03
  9.288599258767E-04  8.385484761601E-04  7.562243652342E-04  6.812553333998E-04
  6.130530091149E-04  5.510703216532E-04  4.947990313984E-04  4.437673759144E-04
  3.975378295328E-04  3.557049738376E-04  3.178934760972E-04  2.837561724100E-04
  2.529722520950E-04  2.252455396727E-04  2.003028706491E-04  1.778925572316E-04
  1.577829400701E-04  1.397610221258E-04  1.236311808172E-04  1.092139546719E-04
  9.634490082453E-05  8.487351982603E-05  7.466224437729E-05  6.558548875235E-05
  5.752875583516E-05  5.038779885254E-05  4.406783504033E-05  3.848280862824E-05
  3.355470066826E-05  2.921288336140E-05  2.539351665596E-05  2.203898499882E-05
  1.909737221851E-05  1.652197260633E-05  1.427083634033E-05  1.230634746767E-05
  1.059483272493E-05  9.106199534546E-06  7.813601570010E-06  6.693130333490E-06
  5.723531238845E-06  4.885942740528E-06  4.163657096119E-06  3.541901397241E-06
  3.007637551060E-06  2.549379942637E-06  2.157029557257E-06  1.821723391598E-06
  1.535698033105E-06  1.292166338195E-06  1.085206191642E-06  9.096603815917E-07
  7.610466767596E-07  6.354772443361E-07  5.295865985955E-07  4.404673209763E-07
  3.656128421997E-07  3.028666255840E-07  2.503771378933E-07  2.065580396360E-07
  1.700530705437E-07  1.397051478875E-07  1.145292352143E-07  9.368857694429E-08
  7.647393000650E-08  6.228545727771E-08  5.061697903165E-08  4.104230791551E-08
  3.320342018659E-08  2.680024111396E-08  2.158184564517E-08  1.733889672943E-08
  1.389716316343E-08  1.111197657284E-08  8.863503259309E-09  7.052721226711E-09
  5.598005852574E-09  4.432239490800E-09  3.500370879292E-09  2.757359677480E-09
  2.166449868436E-09  1.697723218263E-09  1.326890576205E-09  1.034284608630E-09
  8.040226728663E-10  6.233129381688E-10  4.804225602702E-10  3.672809154943E-10
  2.824907112578E-10  2.166485203272E-10  1.656680076863E-10  1.263101801315E-10
  9.601521313894E-11  7.276603919677E-11  5.497803333173E-11  4.141007524657E-11
  3.109306663350E-11  2.327265665369E-11  1.736349578091E-11  1.291281360462E-11
  9.571513257723E-12  7.071305630467E-12  5.206680655874E-12  3.820739520737E-12
  2.794098257254E-12  2.036226307865E-12  1.478708880284E-12  1.070023939537E-12
  7.715075126986E-13  5.542479769952E-13  3.967039894642E-13  2.828840597647E-13
  2.009604347365E-13  1.422175854860E-13  1.002575124996E-13  7.040141943501E-14
  4.924095910265E-14  3.430296552065E-14  2.379995456100E-14  1.644518831125E-14
  1.131614592609E-14  7.754139914264E-15  5.290811716978E-15  3.594532920945E-15
  2.431485833772E-15  1.637523347497E-15  1.097910198963E-15  7.328017569027E-16
  4.868812692456E-16  3.219976840385E-16  2.119588174318E-16  1.388656838150E-16
  9.054374439095E-17  5.875124627983E-17  3.793548048536E-17  2.437352895779E-17
  1.558151544170E-17  9.910447269507E-18  6.271083780235E-18  3.947579856768E-18
  2.471901046697E-18  1.539627318716E-18  9.537986590292E-19  5.876601537765E-19
  3.600773012841E-19  2.193998823751E-19  1.329287781728E-19  8.007816097540E-20
  4.796138802799E-20  2.855760116100E-20  1.690337447585E-20  9.945252347716E-21
  5.815907694252E-21  3.380233350416E-21  1.952409942585E-21  1.120619335245E-21
  0.000000000000E+00  0.000000000000E+00  0.000000000000E+00  0.000000000000E+00
  0.000000000000E+00  0.000000000000E+00  0.000000000000E+00  0.000000000000E+00
  0.000000000000E+00
</data>
</radfunc>
</valence-charge>
<pseudocore-charge matching-radius="0.656159629232"
 number-of-continuous-derivatives="4">
<annotation model-charge-form="Teter function with specified parameters" />
<radfunc>
<data npts="290">
  1.411634158797E+02  1.411459494896E+02  1.410937424192E+02  1.410066625735E+02
  1.408856321891E+02  1.407265615955E+02  1.405239458220E+02  1.402920950740E+02
  1.400316100322E+02  1.397281190708E+02  1.393863888058E+02  1.390153794564E+02
  1.385675886468E+02  1.381006130730E+02  1.375506623399E+02  1.370024275605E+02
  1.363723649345E+02  1.357763636289E+02  1.351077758431E+02  1.343581766201E+02
  1.335182745656E+02  1.327745019779E+02  1.319607365442E+02  1.310708829176E+02
  1.300984179217E+02  1.290363830346E+02  1.278773825789E+02  1.269398058412E+02
  1.259398346014E+02  1.248738854249E+02  1.237382567143E+02  1.225291396561E+02
  1.212426323389E+02  1.198747574986E+02  1.184214843783E+02  1.168787552307E+02
  1.152425170153E+02  1.135087588738E+02  1.122967991631E+02  1.110386186581E+02
  1.097331203175E+02  1.083792496959E+02  1.069760038697E+02  1.055224411137E+02
  1.040176913545E+02  1.024609674155E+02  1.008515770677E+02  9.918893588967E+01
  9.747258093010E+01  9.570218515860E+01  9.387757267435E+01  9.199873462918E+01
  9.006584580399E+01  8.807928175807E+01  8.603963644907E+01  8.394774019696E+01
  8.180467783861E+01  7.961180688970E+01  7.737077549923E+01  7.508353994726E+01
  7.275238140056E+01  7.037992160294E+01  6.796913713822E+01  6.552337186477E+01
  6.304634708198E+01  6.054216895272E+01  5.801533267217E+01  5.674492902927E+01
  5.547072284515E+01  5.419338489038E+01  5.291360951214E+01  5.163211423177E+01
  5.034963925194E+01  4.906694686913E+01  4.778482078708E+01  4.650406532715E+01
  4.522550453171E+01  4.394998115680E+01  4.267835555085E+01  4.141150441617E+01
  4.015031945066E+01  3.889570586761E+01  3.764858079154E+01  3.640987152932E+01
  3.518051371554E+01  3.396144933268E+01  3.275362460662E+01  3.155798777930E+01
  3.037548676107E+01  2.920706666616E+01  2.805366723578E+01  2.691622015441E+01
  2.579564626585E+01  2.469285269702E+01  2.360872989835E+01  2.254414861127E+01
  2.149995677421E+01  2.047697638020E+01  1.947600030018E+01  1.849778908764E+01
  1.754306778149E+01  1.661252272536E+01  1.570679842272E+01  1.482649444844E+01
  1.397216243855E+01  1.314430318090E+01  1.234336383035E+01  1.156973527277E+01
  1.082374966283E+01  1.010567816075E+01  9.415728893585E+00  8.754045166151E+00
  8.120703946752E+00  7.515714651889E+00  6.939018253329E+00  6.390486729576E+00
  5.869922882133E+00  5.377060534941E+00  4.911565132989E+00  4.473034753370E+00
  4.061001538870E+00  3.674933560736E+00  3.314237113356E+00  2.978259439442E+00
  2.666291879791E+00  2.377573436913E+00  2.111294736884E+00  1.866602368570E+00
  1.642603574167E+00  1.438371259680E+00  1.252949288772E+00  1.085358018300E+00
  9.346000290463E-01  7.996660006229E-01  6.795406755143E-01  5.732088537087E-01
  4.796613565708E-01  3.979008965574E-01  3.269477882151E-01  2.658454357021E-01
  2.136655329267E-01  1.695129143616E-01  1.325299977192E-01  1.019007639790E-01
  7.685422575265E-02  5.666734161049E-02  4.066734172882E-02  2.823343894346E-02
  1.879790889516E-02  1.184653325727E-02  6.918410856965E-03  3.605152611609E-03
  1.549487351542E-03  4.433165175010E-04  2.526611637948E-05  7.779389860914E-05
  4.239181899239E-04  9.236418875905E-04  1.470150556678E-03  1.985867109680E-03
  2.418447041983E-03  2.736797501452E-03  2.927200533609E-03  2.989615679253E-03
  2.934229803438E-03  2.778312780782E-03  2.543426712103E-03  2.253024039562E-03
  1.930456670523E-03  1.597404480476E-03  1.272717850257E-03  9.716557311893E-04
  7.054886499318E-04  4.814255613766E-04  3.028149771304E-04  1.695647029710E-04
  7.872107103925E-05  2.514788706801E-05  2.247426511102E-06  2.670556653162E-06
  1.897013995228E-05  4.416085713359E-05  7.215893162267E-05  9.808630798596E-05
  1.184349548287E-04  1.310974394696E-04  1.352791104412E-04  1.313145645957E-04
  1.204161393410E-04  1.043846953185E-04  8.531287074963E-05  6.530842868211E-05
  4.626061249739E-05  2.966607723174E-05  1.652361220171E-05  7.299231018113E-06
  1.956009491844E-06  3.697604355793E-08  7.849561348461E-07  3.280914356016E-06
  6.582175475377E-06  9.843848345286E-06  1.241049991695E-05  1.387010793267E-05
  1.406789871838E-05  1.308313034207E-05  1.117652164558E-05  8.719285178903E-06
  6.116224948066E-06  3.734985789678E-06  1.851436242903E-06  6.177260435774E-07
  5.536920454405E-08  0.000000000000E+00  0.000000000000E+00  0.000000000000E+00
  0.000000000000E+00  0.000000000000E+00  0.000000000000E+00  0.000000000000E+00
  0.000000000000E+00  0.000000000000E+00  0.000000000000E+00  0.000000000000E+00
  0.000000000000E+00  0.000000000000E+00  0.000000000000E+00  0.000000000000E+00
  0.000000000000E+00  0.000000000000E+00  0.000000000000E+00  0.000000000000E+00
  0.000000000000E+00  0.000000000000E+00  0.000000000000E+00  0.000000000000E+00
  0.000000000000E+00  0.000000000000E+00  0.000000000000E+00  0.000000000000E+00
  0.000000000000E+00  0.000000000000E+00  0.000000000000E+00  0.000000000000E+00
  0.000000000000E+00  0.000000000000E+00  0.000000000000E+00  0.000000000000E+00
  0.000000000000E+00  0.000000000000E+00  0.000000000000E+00  0.000000000000E+00
  0.000000000000E+00  0.000000000000E+00  0.000000000000E+00  0.000000000000E+00
  0.000000000000E+00  0.000000000000E+00  0.000000000000E+00  0.000000000000E+00
  0.000000000000E+00  0.000000000000E+00  0.000000000000E+00  0.000000000000E+00
  0.000000000000E+00  0.000000000000E+00  0.000000000000E+00  0.000000000000E+00
  0.000000000000E+00  0.000000000000E+00  0.000000000000E+00  0.000000000000E+00
  0.000000000000E+00  0.000000000000E+00  0.000000000000E+00  0.000000000000E+00
  0.000000000000E+00  0.000000000000E+00  0.000000000000E+00  0.000000000000E+00
  0.000000000000E+00  0.000000000000E+00  0.000000000000E+00  0.000000000000E+00
  0.000000000000E+00  0.000000000000E+00  0.000000000000E+00  0.000000000000E+00
  0.000000000000E+00  0.000000000000E+00
</data>
</radfunc>
</pseudocore-charge>
<semilocal-potentials set="lj">
<slps n="4" l="s" j="0.5" rc="1.40786919618" eref="-3.02760936483">
<radfunc>
<data npts="290">
  2.620676968832E+01  2.618431186862E+01  2.611727932338E+01  2.600578306281E+01
  2.585146139518E+01  2.564976780511E+01  2.539470482222E+01  2.510534389984E+01
  2.478339101177E+01  2.441241598102E+01  2.399992804605E+01  2.355824699800E+01
  2.303349460789E+01  2.249573519963E+01  2.187448712111E+01  2.126778702242E+01
  2.058558814479E+01  1.995461044599E+01  1.926281594199E+01  1.850663394621E+01
  1.768280262152E+01  1.697311715635E+01  1.621714256381E+01  1.541399414549E+01
  1.456313375332E+01  1.366442284913E+01  1.271817372720E+01  1.197775752981E+01
  1.121158524848E+01  1.042037517069E+01  9.605030757428E+00  8.766644769283E+00
  7.906500995667E+00  7.026073358352E+00  6.127022214825E+00  5.211187753549E+00
  4.280580450518E+00  3.337368641877E+00  2.702694161376E+00  2.064158640053E+00
  1.422500654538E+00  7.784781992599E-01  1.328657999428E-01 -5.135484868691E-01
 -1.159966157323E+00 -1.805581394131E+00 -2.449584216862E+00 -3.091163614045E+00
 -3.729510622237E+00 -4.363821317648E+00 -4.993299686803E+00 -5.617160344152E+00
 -6.234631066480E+00 -6.844955116327E+00 -7.447393329351E+00 -8.041225943712E+00
 -8.625754152845E+00 -9.200301366622E+00 -9.764214169577E+00 -1.031686296873E+01
 -1.085764232738E+01 -1.138597098521E+01 -1.190129156883E+01 -1.240307000085E+01
 -1.289079461951E+01 -1.336397502483E+01 -1.382214067096E+01 -1.404545094411E+01
 -1.426483922953E+01 -1.448025153109E+01 -1.469163475217E+01 -1.489893662969E+01
 -1.510210566648E+01 -1.530109106243E+01 -1.549584264460E+01 -1.568631079704E+01
 -1.587244639045E+01 -1.605420071242E+01 -1.623152539875E+01 -1.640437236627E+01
 -1.657269374801E+01 -1.673644183119E+01 -1.689556899893E+01 -1.705002767624E+01
 -1.719977028127E+01 -1.734474918262E+01 -1.748491666355E+01 -1.762022489410E+01
 -1.775062591212E+01 -1.787607161401E+01 -1.799651375636E+01 -1.811190396942E+01
 -1.822219378313E+01 -1.832733466684E+01 -1.842727808328E+01 -1.852197555742E+01
 -1.861137876070E+01 -1.869543961073E+01 -1.877411038646E+01 -1.884734385843E+01
 -1.891509343329E+01 -1.897731331175E+01 -1.903395865829E+01 -1.908498578112E+01
 -1.913035232036E+01 -1.917001744221E+01 -1.920394203693E+01 -1.923208891853E+01
 -1.925442302413E+01 -1.927091161151E+01 -1.928152445400E+01 -1.928623403222E+01
 -1.928501572357E+01 -1.927784799068E+01 -1.926471257133E+01 -1.924559467298E+01
 -1.922048317566E+01 -1.918937084738E+01 -1.915225457660E+01 -1.910913562563E+01
 -1.906001990891E+01 -1.900491829888E+01 -1.894384696139E+01 -1.887682772131E+01
 -1.880388845765E+01 -1.872506352628E+01 -1.864039420679E+01 -1.854992916927E+01
 -1.845372495517E+01 -1.835184646621E+01 -1.824436745405E+01 -1.813137100362E+01
 -1.801295000246E+01 -1.788920758879E+01 -1.776025757122E+01 -1.762622481383E+01
 -1.748724558107E+01 -1.734346783820E+01 -1.719505150420E+01 -1.704216865599E+01
 -1.688500368428E+01 -1.672375340390E+01 -1.655862712342E+01 -1.638984668197E+01
 -1.621764646368E+01 -1.604227340405E+01 -1.586398700586E+01 -1.568305938710E+01
 -1.549977538757E+01 -1.531443276698E+01 -1.512734253247E+01 -1.493882944035E+01