I     ONCVPSP-3.3.0  r_core=   1.41262   1.41262   1.41262
53.0000     25.0000      180503    zatom,zion,pspd
8 -116133   2     4   600     0    pspcod,pspxc,lmax,lloc,mmax,r2well
5.99000000  5.00000000  0.00000000    rchrg fchrg qchrg
2     4     3     0    nproj
3     1           extension_switch
4     4     0    nprojso
0                         1.9112904814620D+00  1.1956494987120D+01
1  0.0000000000000D+00  7.2226066794023D-10 -3.2013725004276D-10
2  1.0000000000000D-02 -1.6673488250881D-02  9.4885815140156D-02
3  2.0000000000000D-02 -3.3130496145715D-02  1.8946673192429D-01
4  3.0000000000000D-02 -4.9156056359239D-02  2.8343911174806D-01
5  4.0000000000000D-02 -6.4538213187543D-02  3.7650182766914D-01
6  5.0000000000000D-02 -7.9069492445267D-02  4.6835750071775D-01
7  6.0000000000000D-02 -9.2548328787655D-02  5.5871371301335D-01
8  7.0000000000000D-02 -1.0478043712647D-01  6.4728419033730D-01
9  8.0000000000000D-02 -1.1558011553098D-01  7.3378994713163D-01
10  9.0000000000000D-02 -1.2477146788899D-01  8.1796038728592D-01
11  1.0000000000000D-01 -1.3218953563577D-01  8.9953435453280D-01
12  1.1000000000000D-01 -1.3768132902628D-01  9.7826112679161D-01
13  1.2000000000000D-01 -1.4110674971162D-01  1.0539013493722D+00
14  1.3000000000000D-01 -1.4233939776666D-01  1.1262279025680D+00
15  1.4000000000000D-01 -1.4126725778164D-01  1.1950266998240D+00
16  1.5000000000000D-01 -1.3779326015659D-01  1.2600974133470D+00
17  1.6000000000000D-01 -1.3183571530071D-01  1.3212541247283D+00
18  1.7000000000000D-01 -1.2332862001752D-01  1.3783258988623D+00
19  1.8000000000000D-01 -1.1222183692816D-01  1.4311572801536D+00
20  1.9000000000000D-01 -9.8481149325629D-02  1.4796087107070D+00
21  2.0000000000000D-01 -8.2088195341022D-02  1.5235568708785D+00
22  2.1000000000000D-01 -6.3040286715665D-02  1.5628949432152D+00
23  2.2000000000000D-01 -4.1350118790649D-02  1.5975328014295D+00
24  2.3000000000000D-01 -1.7045379526406D-02  1.6273971266190D+00
25  2.4000000000000D-01  9.8317335665087D-03  1.6524314534609D+00
26  2.5000000000000D-01  3.9225078786602D-02  1.6725961495629D+00
27  2.6000000000000D-01  7.1065207338037D-02  1.6878683315372D+00
28  2.7000000000000D-01  1.0527006103419D-01  1.6982417216865D+00
29  2.8000000000000D-01  1.4174571908535D-01  1.7037264494229D+00
30  2.9000000000000D-01  1.8038718224690D-01  1.7043488017116D+00
31  3.0000000000000D-01  2.2107918259872D-01  1.7001509269075D+00
32  3.1000000000000D-01  2.6369700741638D-01  1.6911904963618D+00
33  3.2000000000000D-01  3.0810732597815D-01  1.6775403280981D+00
34  3.3000000000000D-01  3.5416900872200D-01  1.6592879767107D+00
35  3.4000000000000D-01  4.0173392891528D-01  1.6365352934155D+00
36  3.5000000000000D-01  4.5064773791611D-01  1.6093979598968D+00
37  3.6000000000000D-01  5.0075060617120D-01  1.5780049992481D+00
38  3.7000000000000D-01  5.5187792329739D-01  1.5424982669032D+00
39  3.8000000000000D-01  6.0386095190868D-01  1.5030319240170D+00
40  3.9000000000000D-01  6.5652743125826D-01  1.4597718952715D+00
41  4.0000000000000D-01  7.0970212823923D-01  1.4128953125916D+00
42  4.1000000000000D-01  7.6320733480401D-01  1.3625899457367D+00
43  4.2000000000000D-01  8.1686331239309D-01  1.3090536202241D+00
44  4.3000000000000D-01  8.7048868548035D-01  1.2524936225371D+00
45  4.4000000000000D-01  9.2390078781748D-01  1.1931260920922D+00
46  4.5000000000000D-01  9.7691596636469D-01  1.1311753989923D+00
47  4.6000000000000D-01  1.0293498492017D+00  1.0668735061935D+00
48  4.7000000000000D-01  1.0810175848954D+00  1.0004593143720D+00
49  4.8000000000000D-01  1.1317340618328D+00  9.3217798749647D-01
50  4.9000000000000D-01  1.1813141168880D+00  8.6228025691242D-01
51  5.0000000000000D-01  1.2295727434561D+00  7.9102170162714D-01
52  5.1000000000000D-01  1.2763253093436D+00  7.1866200245393D-01
53  5.2000000000000D-01  1.3213877952296D+00  6.4546416774314D-01
54  5.3000000000000D-01  1.3645770644041D+00  5.7169372859261D-01
55  5.4000000000000D-01  1.4057111742343D+00  4.9761790169642D-01
56  5.5000000000000D-01  1.4446097393076D+00  4.2350471835703D-01
57  5.6000000000000D-01  1.4810943554493D+00  3.4962211865018D-01
58  5.7000000000000D-01  1.5149890928245D+00  2.7623701029104D-01
59  5.8000000000000D-01  1.5461210651106D+00  2.0361429239467D-01
60  5.9000000000000D-01  1.5743210802869D+00  1.3201584505332D-01
61  6.0000000000000D-01  1.5994243769562D+00  6.1699486446037D-02
62  6.1000000000000D-01  1.6212714482941D+00 -7.0820999448081D-03
63  6.2000000000000D-01  1.6397089537690D+00 -7.4082464537327D-02
64  6.3000000000000D-01  1.6545907166941D+00 -1.3906251286924D-01
65  6.4000000000000D-01  1.6657788035063D+00 -2.0179164347865D-01
66  6.5000000000000D-01  1.6731446784649D+00 -2.6204889615280D-01
67  6.6000000000000D-01  1.6765704252295D+00 -3.1962410332203D-01
68  6.7000000000000D-01  1.6759500245885D+00 -3.7431903649140D-01
69  6.8000000000000D-01  1.6711906754872D+00 -4.2594853877378D-01
70  6.9000000000000D-01  1.6622141444876D+00 -4.7434163383034D-01
71  7.0000000000000D-01  1.6489581269296D+00 -5.1934260086269D-01
72  7.1000000000000D-01  1.6313776013896D+00 -5.6081200474797D-01
73  7.2000000000000D-01  1.6094461575898D+00 -5.9862766998088D-01
74  7.3000000000000D-01  1.5831572767226D+00 -6.3268558679881D-01
75  7.4000000000000D-01  1.5525255422637D+00 -6.6290073773282D-01
76  7.5000000000000D-01  1.5175877587796D+00 -6.8920783285720D-01
77  7.6000000000000D-01  1.4784039560058D+00 -7.1156194221305D-01
78  7.7000000000000D-01  1.4350582556085D+00 -7.2993901426319D-01
79  7.8000000000000D-01  1.3876595785538D+00 -7.4433626979980D-01
80  7.9000000000000D-01  1.3363421718947D+00 -7.5477246147104D-01
81  8.0000000000000D-01  1.2812659350680D+00 -7.6128799002369D-01
82  8.1000000000000D-01  1.2226165274371D+00 -7.6394486945877D-01
83  8.2000000000000D-01  1.1606052408358D+00 -7.6282653456747D-01
84  8.3000000000000D-01  1.0954686232259D+00 -7.5803748573944D-01
85  8.4000000000000D-01  1.0274678422686D+00 -7.4970276750133D-01
86  8.5000000000000D-01  9.5688778057852D-01 -7.3796727893328D-01
87  8.6000000000000D-01  8.8403585766076D-01 -7.2299491590498D-01
88  8.7000000000000D-01  8.0924057696822D-01 -7.0496754694897D-01
89  8.8000000000000D-01  7.3284980012473D-01 -6.8408382652289D-01
90  8.9000000000000D-01  6.5522875407932D-01 -6.6055785137836D-01
91  9.0000000000000D-01  5.7675778074070D-01 -6.3461766772447D-01
92  9.1000000000000D-01  4.9782984242776D-01 -6.0650363882090D-01
93  9.2000000000000D-01  4.1884780020707D-01 -5.7646668452999D-01
94  9.3000000000000D-01  3.4022148580815D-01 -5.4476640616843D-01
95  9.4000000000000D-01  2.6236459126770D-01 -5.1166911170629D-01
96  9.5000000000000D-01  1.8569140366134D-01 -4.7744575791735D-01
97  9.6000000000000D-01  1.1061341522225D-01 -4.4236982748631D-01
98  9.7000000000000D-01  3.7535841766391D-02 -4.0671516029603D-01
99  9.8000000000000D-01 -3.3145915464412D-02 -3.7075375910456D-01
100  9.9000000000000D-01 -1.0104982763111D-01 -3.3475359059152D-01
101  1.0000000000000D+00 -1.6581077757050D-01 -2.9897640326795D-01
102  1.0100000000000D+00 -2.2708404145866D-01 -2.6367558399857D-01
103  1.0200000000000D+00 -2.8454867353910D-01 -2.2909407484598D-01
104  1.0300000000000D+00 -3.3791075479362D-01 -1.9546237167355D-01
105  1.0400000000000D+00 -3.8690646724160D-01 -1.6299662534058D-01
106  1.0500000000000D+00 -4.3130495690807D-01 -1.3189686545658D-01
107  1.0600000000000D+00 -4.7091095035327D-01 -1.0234536553751D-01
108  1.0700000000000D+00 -5.0556709212312D-01 -7.4505166969932D-02
109  1.0800000000000D+00 -5.3515597337523D-01 -4.8518777544666D-02
110  1.0900000000000D+00 -5.5960182511491D-01 -2.4507058540303D-02
111  1.1000000000000D+00 -5.7887185364365D-01 -2.5683120426707D-03
112  1.1100000000000D+00 -5.9297719964285D-01  1.7222421895256D-02
113  1.1200000000000D+00 -6.0197350736231D-01  3.4813851372851D-02
114  1.1300000000000D+00 -6.0596109410243D-01  5.0178697160093D-02
115  1.1400000000000D+00 -6.0508471635548D-01  6.3313734028148D-02
116  1.1500000000000D+00 -5.9953293325522D-01  7.4239609573596D-02
117  1.1600000000000D+00 -5.8953707393738D-01  8.3000444359325D-02
118  1.1700000000000D+00 -5.7536982359041D-01  8.9663220878096D-02
119  1.1800000000000D+00 -5.5734341540514D-01  9.4316958946612D-02
120  1.1900000000000D+00 -5.3580757863143D-01  9.7071740025720D-02
121  1.2000000000000D+00 -5.1114660957113D-01  9.8057332785921D-02
122  1.2100000000000D+00 -4.8377814308426D-01  9.7422444152397D-02
123  1.2200000000000D+00 -4.5414673917370D-01  9.5331885360990D-02
124  1.2300000000000D+00 -4.2271174530487D-01  9.1961438060383D-02
125  1.2400000000000D+00 -3.8993507454799D-01  8.7492510762145D-02
126  1.2500000000000D+00 -3.5627418325509D-01  8.2108779671421D-02
127  1.2600000000000D+00 -3.2217971880831D-01  7.5994622015524D-02
128  1.2700000000000D+00 -2.8809101209514D-01  6.9332725251296D-02
129  1.2800000000000D+00 -2.5443229623807D-01  6.2301982352017D-02
130  1.2900000000000D+00 -2.2160886572466D-01  5.5075379521245D-02
131  1.3000000000000D+00 -1.9000341622991D-01  4.7817974995433D-02
132  1.3100000000000D+00 -1.5997255935226D-01  4.0684972760286D-02
133  1.3200000000000D+00 -1.3184355769556D-01  3.3819914190255D-02
134  1.3300000000000D+00 -1.0591132076577D-01  2.7353009020338D-02
135  1.3400000000000D+00 -8.2435693584287D-02  2.1399622561689D-02
136  1.3500000000000D+00 -6.1639067379339D-02  1.6058934713780D-02
137  1.3600000000000D+00 -4.3704343486048D-02  1.1412787285424D-02
138  1.3700000000000D+00 -2.8782476747324D-02  7.5270983856115D-03
139  1.3800000000000D+00 -1.6938276735163D-02  4.4374415678685D-03
140  1.3900000000000D+00 -8.2152544974367D-03  2.1652602339365D-03
141  1.4000000000000D+00 -2.9040071783677D-03  7.9027078385459D-04
142  1.4100000000000D+00 -5.8037504422145D-04  1.9136015614406D-04
143  1.4200000000000D+00  3.2001169908903D-05  1.5140260364164D-05
144  1.4300000000000D+00 -3.0022685408479D-06  2.6247185332560D-07
145  1.4400000000000D+00 -3.1496018542641D-05  4.4511917230706D-06
146  1.4500000000000D+00  2.8165463062707D-06 -1.1563190969441D-07
147  1.4600000000000D+00  3.2735215674081D-06 -2.5913236614340D-07
148  1.4700000000000D+00  8.0822254386357D-07 -3.1115688690990D-07
149  1.4800000000000D+00  2.4383575128329D-07 -9.3874111607871D-08
150  1.4900000000000D+00  0.0000000000000D+00  0.0000000000000D+00
151  1.5000000000000D+00  0.0000000000000D+00  0.0000000000000D+00
152  1.5100000000000D+00  0.0000000000000D+00  0.0000000000000D+00
153  1.5200000000000D+00  0.0000000000000D+00  0.0000000000000D+00
154  1.5300000000000D+00  0.0000000000000D+00  0.0000000000000D+00
155  1.5400000000000D+00  0.0000000000000D+00  0.0000000000000D+00
156  1.5500000000000D+00  0.0000000000000D+00  0.0000000000000D+00
157  1.5600000000000D+00  0.0000000000000D+00  0.0000000000000D+00
158  1.5700000000000D+00  0.0000000000000D+00  0.0000000000000D+00
159  1.5800000000000D+00  0.0000000000000D+00  0.0000000000000D+00
160  1.5900000000000D+00  0.0000000000000D+00  0.0000000000000D+00
161  1.6000000000000D+00  0.0000000000000D+00  0.0000000000000D+00
162  1.6100000000000D+00  0.0000000000000D+00  0.0000000000000D+00
163  1.6200000000000D+00  0.0000000000000D+00  0.0000000000000D+00
164  1.6300000000000D+00  0.0000000000000D+00  0.0000000000000D+00
165  1.6400000000000D+00  0.0000000000000D+00  0.0000000000000D+00
166  1.6500000000000D+00  0.0000000000000D+00  0.0000000000000D+00
167  1.6600000000000D+00  0.0000000000000D+00  0.0000000000000D+00
168  1.6700000000000D+00  0.0000000000000D+00  0.0000000000000D+00
169  1.6800000000000D+00  0.0000000000000D+00  0.0000000000000D+00
170  1.6900000000000D+00  0.0000000000000D+00  0.0000000000000D+00
171  1.7000000000000D+00  0.0000000000000D+00  0.0000000000000D+00
172  1.7100000000000D+00  0.0000000000000D+00  0.0000000000000D+00
173  1.7200000000000D+00  0.0000000000000D+00  0.0000000000000D+00
174  1.7300000000000D+00  0.0000000000000D+00  0.0000000000000D+00
175  1.7400000000000D+00  0.0000000000000D+00  0.0000000000000D+00
176  1.7500000000000D+00  0.0000000000000D+00  0.0000000000000D+00
177  1.7600000000000D+00  0.0000000000000D+00  0.0000000000000D+00
178  1.7700000000000D+00  0.0000000000000D+00  0.0000000000000D+00
179  1.7800000000000D+00  0.0000000000000D+00  0.0000000000000D+00
180  1.7900000000000D+00  0.0000000000000D+00  0.0000000000000D+00
181  1.8000000000000D+00  0.0000000000000D+00  0.0000000000000D+00
182  1.8100000000000D+00  0.0000000000000D+00  0.0000000000000D+00
183  1.8200000000000D+00  0.0000000000000D+00  0.0000000000000D+00
184  1.8300000000000D+00  0.0000000000000D+00  0.0000000000000D+00
185  1.8400000000000D+00  0.0000000000000D+00  0.0000000000000D+00
186  1.8500000000000D+00  0.0000000000000D+00  0.0000000000000D+00
187  1.8600000000000D+00  0.0000000000000D+00  0.0000000000000D+00
188  1.8700000000000D+00  0.0000000000000D+00  0.0000000000000D+00
189  1.8800000000000D+00  0.0000000000000D+00  0.0000000000000D+00
190  1.8900000000000D+00  0.0000000000000D+00  0.0000000000000D+00
191  1.9000000000000D+00  0.0000000000000D+00  0.0000000000000D+00
192  1.9100000000000D+00  0.0000000000000D+00  0.0000000000000D+00
193  1.9200000000000D+00  0.0000000000000D+00  0.0000000000000D+00
194  1.9300000000000D+00  0.0000000000000D+00  0.0000000000000D+00
195  1.9400000000000D+00  0.0000000000000D+00  0.0000000000000D+00
196  1.9500000000000D+00  0.0000000000000D+00  0.0000000000000D+00
197  1.9600000000000D+00  0.0000000000000D+00  0.0000000000000D+00
198  1.9700000000000D+00  0.0000000000000D+00  0.0000000000000D+00
199  1.9800000000000D+00  0.0000000000000D+00  0.0000000000000D+00
200  1.9900000000000D+00  0.0000000000000D+00  0.0000000000000D+00
201  2.0000000000000D+00  0.0000000000000D+00  0.0000000000000D+00
202  2.0100000000000D+00  0.0000000000000D+00  0.0000000000000D+00
203  2.0200000000000D+00  0.0000000000000D+00  0.0000000000000D+00
204  2.0300000000000D+00  0.0000000000000D+00  0.0000000000000D+00
205  2.0400000000000D+00  0.0000000000000D+00  0.0000000000000D+00
206  2.0500000000000D+00  0.0000000000000D+00  0.0000000000000D+00
207  2.0600000000000D+00  0.0000000000000D+00  0.0000000000000D+00
208  2.0700000000000D+00  0.0000000000000D+00  0.0000000000000D+00
209  2.0800000000000D+00  0.0000000000000D+00  0.0000000000000D+00
210  2.0900000000000D+00  0.0000000000000D+00  0.0000000000000D+00
211  2.1000000000000D+00  0.0000000000000D+00  0.0000000000000D+00
212  2.1100000000000D+00  0.0000000000000D+00  0.0000000000000D+00
213  2.1200000000000D+00  0.0000000000000D+00  0.0000000000000D+00
214  2.1300000000000D+00  0.0000000000000D+00  0.0000000000000D+00
215  2.1400000000000D+00  0.0000000000000D+00  0.0000000000000D+00
216  2.1500000000000D+00  0.0000000000000D+00  0.0000000000000D+00
217  2.1600000000000D+00  0.0000000000000D+00  0.0000000000000D+00
218  2.1700000000000D+00  0.0000000000000D+00  0.0000000000000D+00
219  2.1800000000000D+00  0.0000000000000D+00  0.0000000000000D+00
220  2.1900000000000D+00  0.0000000000000D+00  0.0000000000000D+00
221  2.2000000000000D+00  0.0000000000000D+00  0.0000000000000D+00
222  2.2100000000000D+00  0.0000000000000D+00  0.0000000000000D+00
223  2.2200000000000D+00  0.0000000000000D+00  0.0000000000000D+00
224  2.2300000000000D+00  0.0000000000000D+00  0.0000000000000D+00
225  2.2400000000000D+00  0.0000000000000D+00  0.0000000000000D+00
226  2.2500000000000D+00  0.0000000000000D+00  0.0000000000000D+00
227  2.2600000000000D+00  0.0000000000000D+00  0.0000000000000D+00
228  2.2700000000000D+00  0.0000000000000D+00  0.0000000000000D+00
229  2.2800000000000D+00  0.0000000000000D+00  0.0000000000000D+00
230  2.2900000000000D+00  0.0000000000000D+00  0.0000000000000D+00
231  2.3000000000000D+00  0.0000000000000D+00  0.0000000000000D+00
232  2.3100000000000D+00  0.0000000000000D+00  0.0000000000000D+00
233  2.3200000000000D+00  0.0000000000000D+00  0.0000000000000D+00
234  2.3300000000000D+00  0.0000000000000D+00  0.0000000000000D+00
235  2.3400000000000D+00  0.0000000000000D+00  0.0000000000000D+00
236  2.3500000000000D+00  0.0000000000000D+00  0.0000000000000D+00
237  2.3600000000000D+00  0.0000000000000D+00  0.0000000000000D+00
238  2.3700000000000D+00  0.0000000000000D+00  0.0000000000000D+00
239  2.3800000000000D+00  0.0000000000000D+00  0.0000000000000D+00
240  2.3900000000000D+00  0.0000000000000D+00  0.0000000000000D+00
241  2.4000000000000D+00  0.0000000000000D+00  0.0000000000000D+00
242  2.4100000000000D+00  0.0000000000000D+00  0.0000000000000D+00
243  2.4200000000000D+00  0.0000000000000D+00  0.0000000000000D+00
244  2.4300000000000D+00  0.0000000000000D+00  0.0000000000000D+00
245  2.4400000000000D+00  0.0000000000000D+00  0.0000000000000D+00
246  2.4500000000000D+00  0.0000000000000D+00  0.0000000000000D+00
247  2.4600000000000D+00  0.0000000000000D+00  0.0000000000000D+00
248  2.4700000000000D+00  0.0000000000000D+00  0.0000000000000D+00
249  2.4800000000000D+00  0.0000000000000D+00  0.0000000000000D+00
250  2.4900000000000D+00  0.0000000000000D+00  0.0000000000000D+00
251  2.5000000000000D+00  0.0000000000000D+00  0.0000000000000D+00
252  2.5100000000000D+00  0.0000000000000D+00  0.0000000000000D+00
253  2.5200000000000D+00  0.0000000000000D+00  0.0000000000000D+00
254  2.5300000000000D+00  0.0000000000000D+00  0.0000000000000D+00
255  2.5400000000000D+00  0.0000000000000D+00  0.0000000000000D+00
256  2.5500000000000D+00  0.0000000000000D+00  0.0000000000000D+00
257  2.5600000000000D+00  0.0000000000000D+00  0.0000000000000D+00
258  2.5700000000000D+00  0.0000000000000D+00  0.0000000000000D+00
259  2.5800000000000D+00  0.0000000000000D+00  0.0000000000000D+00
260  2.5900000000000D+00  0.0000000000000D+00  0.0000000000000D+00
261  2.6000000000000D+00  0.0000000000000D+00  0.0000000000000D+00
262  2.6100000000000D+00  0.0000000000000D+00  0.0000000000000D+00
263  2.6200000000000D+00  0.0000000000000D+00  0.0000000000000D+00
264  2.6300000000000D+00  0.0000000000000D+00  0.0000000000000D+00
265  2.6400000000000D+00  0.0000000000000D+00  0.0000000000000D+00
266  2.6500000000000D+00  0.0000000000000D+00  0.0000000000000D+00
267  2.6600000000000D+00  0.0000000000000D+00  0.0000000000000D+00
268  2.6700000000000D+00  0.0000000000000D+00  0.0000000000000D+00
269  2.6800000000000D+00  0.0000000000000D+00  0.0000000000000D+00
270  2.6900000000000D+00  0.0000000000000D+00  0.0000000000000D+00
271  2.7000000000000D+00  0.0000000000000D+00  0.0000000000000D+00
272  2.7100000000000D+00  0.0000000000000D+00  0.0000000000000D+00
273  2.7200000000000D+00  0.0000000000000D+00  0.0000000000000D+00
274  2.7300000000000D+00  0.0000000000000D+00  0.0000000000000D+00
275  2.7400000000000D+00  0.0000000000000D+00  0.0000000000000D+00
276  2.7500000000000D+00  0.0000000000000D+00  0.0000000000000D+00
277  2.7600000000000D+00  0.0000000000000D+00  0.0000000000000D+00
278  2.7700000000000D+00  0.0000000000000D+00  0.0000000000000D+00
279  2.7800000000000D+00  0.0000000000000D+00  0.0000000000000D+00
280  2.7900000000000D+00  0.0000000000000D+00  0.0000000000000D+00
281  2.8000000000000D+00  0.0000000000000D+00  0.0000000000000D+00
282  2.8100000000000D+00  0.0000000000000D+00  0.0000000000000D+00
283  2.8200000000000D+00  0.0000000000000D+00  0.0000000000000D+00
284  2.8300000000000D+00  0.0000000000000D+00  0.0000000000000D+00
285  2.8400000000000D+00  0.0000000000000D+00  0.0000000000000D+00
286  2.8500000000000D+00  0.0000000000000D+00  0.0000000000000D+00
287  2.8600000000000D+00  0.0000000000000D+00  0.0000000000000D+00
288  2.8700000000000D+00  0.0000000000000D+00  0.0000000000000D+00
289  2.8800000000000D+00  0.0000000000000D+00  0.0000000000000D+00
290  2.8900000000000D+00  0.0000000000000D+00  0.0000000000000D+00
291  2.9000000000000D+00  0.0000000000000D+00  0.0000000000000D+00
292  2.9100000000000D+00  0.0000000000000D+00  0.0000000000000D+00
293  2.9200000000000D+00  0.0000000000000D+00  0.0000000000000D+00
294  2.9300000000000D+00  0.0000000000000D+00  0.0000000000000D+00
295  2.9400000000000D+00  0.0000000000000D+00  0.0000000000000D+00
296  2.9500000000000D+00  0.0000000000000D+00  0.0000000000000D+00
297  2.9600000000000D+00  0.0000000000000D+00  0.0000000000000D+00
298  2.9700000000000D+00  0.0000000000000D+00  0.0000000000000D+00
299  2.9800000000000D+00  0.0000000000000D+00  0.0000000000000D+00
300  2.9900000000000D+00  0.0000000000000D+00  0.0000000000000D+00
301  3.0000000000000D+00  0.0000000000000D+00  0.0000000000000D+00
302  3.0100000000000D+00  0.0000000000000D+00  0.0000000000000D+00
303  3.0200000000000D+00  0.0000000000000D+00  0.0000000000000D+00
304  3.0300000000000D+00  0.0000000000000D+00  0.0000000000000D+00
305  3.0400000000000D+00  0.0000000000000D+00  0.0000000000000D+00
306  3.0500000000000D+00  0.0000000000000D+00  0.0000000000000D+00
307  3.0600000000000D+00  0.0000000000000D+00  0.0000000000000D+00
308  3.0700000000000D+00  0.0000000000000D+00  0.0000000000000D+00
309  3.0800000000000D+00  0.0000000000000D+00  0.0000000000000D+00
310  3.0900000000000D+00  0.0000000000000D+00  0.0000000000000D+00
311  3.1000000000000D+00  0.0000000000000D+00  0.0000000000000D+00
312  3.1100000000000D+00  0.0000000000000D+00  0.0000000000000D+00
313  3.1200000000000D+00  0.0000000000000D+00  0.0000000000000D+00
314  3.1300000000000D+00  0.0000000000000D+00  0.0000000000000D+00
315  3.1400000000000D+00  0.0000000000000D+00  0.0000000000000D+00
316  3.1500000000000D+00  0.0000000000000D+00  0.0000000000000D+00
317  3.1600000000000D+00  0.0000000000000D+00  0.0000000000000D+00
318  3.1700000000000D+00  0.0000000000000D+00  0.0000000000000D+00
319  3.1800000000000D+00  0.0000000000000D+00  0.0000000000000D+00
320  3.1900000000000D+00  0.0000000000000D+00  0.0000000000000D+00
321  3.2000000000000D+00  0.0000000000000D+00  0.0000000000000D+00
322  3.2100000000000D+00  0.0000000000000D+00  0.0000000000000D+00
323  3.2200000000000D+00  0.0000000000000D+00  0.0000000000000D+00
324  3.2300000000000D+00  0.0000000000000D+00  0.0000000000000D+00
325  3.2400000000000D+00  0.0000000000000D+00  0.0000000000000D+00
326  3.2500000000000D+00  0.0000000000000D+00  0.0000000000000D+00
327  3.2600000000000D+00  0.0000000000000D+00  0.0000000000000D+00
328  3.2700000000000D+00  0.0000000000000D+00  0.0000000000000D+00
329  3.2800000000000D+00  0.0000000000000D+00  0.0000000000000D+00
330  3.2900000000000D+00  0.0000000000000D+00  0.0000000000000D+00
331  3.3000000000000D+00  0.0000000000000D+00  0.0000000000000D+00
332  3.3100000000000D+00  0.0000000000000D+00  0.0000000000000D+00
333  3.3200000000000D+00  0.0000000000000D+00  0.0000000000000D+00
334  3.3300000000000D+00  0.0000000000000D+00  0.0000000000000D+00
335  3.3400000000000D+00  0.0000000000000D+00  0.0000000000000D+00
336  3.3500000000000D+00  0.0000000000000D+00  0.0000000000000D+00
337  3.3600000000000D+00  0.0000000000000D+00  0.0000000000000D+00
338  3.3700000000000D+00  0.0000000000000D+00  0.0000000000000D+00
339  3.3800000000000D+00  0.0000000000000D+00  0.0000000000000D+00
340  3.3900000000000D+00  0.0000000000000D+00  0.0000000000000D+00
341  3.4000000000000D+00  0.0000000000000D+00  0.0000000000000D+00
342  3.4100000000000D+00  0.0000000000000D+00  0.0000000000000D+00
343  3.4200000000000D+00  0.0000000000000D+00  0.0000000000000D+00
344  3.4300000000000D+00  0.0000000000000D+00  0.0000000000000D+00
345  3.4400000000000D+00  0.0000000000000D+00  0.0000000000000D+00
346  3.4500000000000D+00  0.0000000000000D+00  0.0000000000000D+00
347  3.4600000000000D+00  0.0000000000000D+00  0.0000000000000D+00
348  3.4700000000000D+00  0.0000000000000D+00  0.0000000000000D+00
349  3.4800000000000D+00  0.0000000000000D+00  0.0000000000000D+00
350  3.4900000000000D+00  0.0000000000000D+00  0.0000000000000D+00
351  3.5000000000000D+00  0.0000000000000D+00  0.0000000000000D+00
352  3.5100000000000D+00  0.0000000000000D+00  0.0000000000000D+00
353  3.5200000000000D+00  0.0000000000000D+00  0.0000000000000D+00
354  3.5300000000000D+00  0.0000000000000D+00  0.0000000000000D+00
355  3.5400000000000D+00  0.0000000000000D+00  0.0000000000000D+00
356  3.5500000000000D+00  0.0000000000000D+00  0.0000000000000D+00
357  3.5600000000000D+00  0.0000000000000D+00  0.0000000000000D+00
358  3.5700000000000D+00  0.0000000000000D+00  0.0000000000000D+00
359  3.5800000000000D+00  0.0000000000000D+00  0.0000000000000D+00
360  3.5900000000000D+00  0.0000000000000D+00  0.0000000000000D+00
361  3.6000000000000D+00  0.0000000000000D+00  0.0000000000000D+00
362  3.6100000000000D+00  0.0000000000000D+00  0.0000000000000D+00
363  3.6200000000000D+00  0.0000000000000D+00  0.0000000000000D+00
364  3.6300000000000D+00  0.0000000000000D+00  0.0000000000000D+00
365  3.6400000000000D+00  0.0000000000000D+00  0.0000000000000D+00
366  3.6500000000000D+00  0.0000000000000D+00  0.0000000000000D+00
367  3.6600000000000D+00  0.0000000000000D+00  0.0000000000000D+00
368  3.6700000000000D+00  0.0000000000000D+00  0.0000000000000D+00
369  3.6800000000000D+00  0.0000000000000D+00  0.0000000000000D+00
370  3.6900000000000D+00  0.0000000000000D+00  0.0000000000000D+00
371  3.7000000000000D+00  0.0000000000000D+00  0.0000000000000D+00
372  3.7100000000000D+00  0.0000000000000D+00  0.0000000000000D+00
373  3.7200000000000D+00  0.0000000000000D+00  0.0000000000000D+00
374  3.7300000000000D+00  0.0000000000000D+00  0.0000000000000D+00
375  3.7400000000000D+00  0.0000000000000D+00  0.0000000000000D+00
376  3.7500000000000D+00  0.0000000000000D+00  0.0000000000000D+00
377  3.7600000000000D+00  0.0000000000000D+00  0.0000000000000D+00
378  3.7700000000000D+00  0.0000000000000D+00  0.0000000000000D+00
379  3.7800000000000D+00  0.0000000000000D+00  0.0000000000000D+00
380  3.7900000000000D+00  0.0000000000000D+00  0.0000000000000D+00
381  3.8000000000000D+00  0.0000000000000D+00  0.0000000000000D+00
382  3.8100000000000D+00  0.0000000000000D+00  0.0000000000000D+00
383  3.8200000000000D+00  0.0000000000000D+00  0.0000000000000D+00
384  3.8300000000000D+00  0.0000000000000D+00  0.0000000000000D+00
385  3.8400000000000D+00  0.0000000000000D+00  0.0000000000000D+00
386  3.8500000000000D+00  0.0000000000000D+00  0.0000000000000D+00
387  3.8600000000000D+00  0.0000000000000D+00  0.0000000000000D+00
388  3.8700000000000D+00  0.0000000000000D+00  0.0000000000000D+00
389  3.8800000000000D+00  0.0000000000000D+00  0.0000000000000D+00
390  3.8900000000000D+00  0.0000000000000D+00  0.0000000000000D+00
391  3.9000000000000D+00  0.0000000000000D+00  0.0000000000000D+00
392  3.9100000000000D+00  0.0000000000000D+00  0.0000000000000D+00
393  3.9200000000000D+00  0.0000000000000D+00  0.0000000000000D+00
394  3.9300000000000D+00  0.0000000000000D+00  0.0000000000000D+00
395  3.9400000000000D+00  0.0000000000000D+00  0.0000000000000D+00
396  3.9500000000000D+00  0.0000000000000D+00  0.0000000000000D+00
397  3.9600000000000D+00  0.0000000000000D+00  0.0000000000000D+00
398  3.9700000000000D+00  0.0000000000000D+00  0.0000000000000D+00
399  3.9800000000000D+00  0.0000000000000D+00  0.0000000000000D+00
400  3.9900000000000D+00  0.0000000000000D+00  0.0000000000000D+00
401  4.0000000000000D+00  0.0000000000000D+00  0.0000000000000D+00
402  4.0100000000000D+00  0.0000000000000D+00  0.0000000000000D+00
403  4.0200000000000D+00  0.0000000000000D+00  0.0000000000000D+00
404  4.0300000000000D+00  0.0000000000000D+00  0.0000000000000D+00
405  4.0400000000000D+00  0.0000000000000D+00  0.0000000000000D+00
406  4.0500000000000D+00  0.0000000000000D+00  0.0000000000000D+00
407  4.0600000000000D+00  0.0000000000000D+00  0.0000000000000D+00
408  4.0700000000000D+00  0.0000000000000D+00  0.0000000000000D+00
409  4.0800000000000D+00  0.0000000000000D+00  0.0000000000000D+00
410  4.0900000000000D+00  0.0000000000000D+00  0.0000000000000D+00
411  4.1000000000000D+00  0.0000000000000D+00  0.0000000000000D+00
412  4.1100000000000D+00  0.0000000000000D+00  0.0000000000000D+00
413  4.1200000000000D+00  0.0000000000000D+00  0.0000000000000D+00
414  4.1300000000000D+00  0.0000000000000D+00  0.0000000000000D+00
415  4.1400000000000D+00  0.0000000000000D+00  0.0000000000000D+00
416  4.1500000000000D+00  0.0000000000000D+00  0.0000000000000D+00
417  4.1600000000000D+00  0.0000000000000D+00  0.0000000000000D+00
418  4.1700000000000D+00  0.0000000000000D+00  0.0000000000000D+00
419  4.1800000000000D+00  0.0000000000000D+00  0.0000000000000D+00
420  4.1900000000000D+00  0.0000000000000D+00  0.0000000000000D+00
421  4.2000000000000D+00  0.0000000000000D+00  0.0000000000000D+00
422  4.2100000000000D+00  0.0000000000000D+00  0.0000000000000D+00
423  4.2200000000000D+00  0.0000000000000D+00  0.0000000000000D+00
424  4.2300000000000D+00  0.0000000000000D+00  0.0000000000000D+00
425  4.2400000000000D+00  0.0000000000000D+00  0.0000000000000D+00
426  4.2500000000000D+00  0.0000000000000D+00  0.0000000000000D+00
427  4.2600000000000D+00  0.0000000000000D+00  0.0000000000000D+00
428  4.2700000000000D+00  0.0000000000000D+00  0.0000000000000D+00
429  4.2800000000000D+00  0.0000000000000D+00  0.0000000000000D+00
430  4.2900000000000D+00  0.0000000000000D+00  0.0000000000000D+00
431  4.3000000000000D+00  0.0000000000000D+00  0.0000000000000D+00
432  4.3100000000000D+00  0.0000000000000D+00  0.0000000000000D+00
433  4.3200000000000D+00  0.0000000000000D+00  0.0000000000000D+00
434  4.3300000000000D+00  0.0000000000000D+00  0.0000000000000D+00
435  4.3400000000000D+00  0.0000000000000D+00  0.0000000000000D+00
436  4.3500000000000D+00  0.0000000000000D+00  0.0000000000000D+00
437  4.3600000000000D+00  0.0000000000000D+00  0.0000000000000D+00
438  4.3700000000000D+00  0.0000000000000D+00  0.0000000000000D+00
439  4.3800000000000D+00  0.0000000000000D+00  0.0000000000000D+00
440  4.3900000000000D+00  0.0000000000000D+00  0.0000000000000D+00
441  4.4000000000000D+00  0.0000000000000D+00  0.0000000000000D+00
442  4.4100000000000D+00  0.0000000000000D+00  0.0000000000000D+00
443  4.4200000000000D+00  0.0000000000000D+00  0.0000000000000D+00