<?xml version="1.0" encoding="UTF-8" ?>
<psml version="1.1" energy_unit="hartree" length_unit="bohr"
 uuid="6b23f9c0-53a1-11e8-789d-990377fb8b45"
 xmlns="http://esl.cecam.org/PSML/ns/1.1">
<provenance creator="ONCVPSP-3.3.0+psml-3.3.0-73 (fully-relativistic)"
 date="2018-05-09">
<annotation action="semilocal-pseudopotential-generation"
 action-cont="projectors-generation" />
<input-file name="oncvpsp-input">
<![CDATA[# atsym z nc nv iexc psfile
I 53 8 3 -116133 upf
# n l f
1 0 2.0
2 0 2.0
2 1 6.0
3 0 2.0
3 1 6.0
3 2 10.0
4 0 2.0
4 1 6.0
4 2 10.0
5 0 2.0
5 1 5.0
# lmax
2
# l rc ep ncon nbas qcut
0 1.95 0.0 4 7 3.6
1 1.85 0.0 4 7 4.8
2 1.85 0.0 4 7 8.4
# lloc lpopt rc5 dvloc0
4 5 1.8 0.0
# l nproj debl
0 2 2.8
1 2 2.5
2 2 2.0
# icmod fcfact rcfact
3 8.8 1.25
# epsh1 epsh2 depsh
-12.0 12.0 0.02
# rlmax drl
6.0 0.01
 0
]]>
</input-file>
</provenance>
<pseudo-atom-spec atomic-label="I" atomic-number="53" z-pseudo="17"
 flavor="Hamann&apos;s oncvpsp" relativity="dirac" spin-dft="no"
 core-corrections="yes">
<annotation pseudo-energy="-107.350501743" />
<exchange-correlation>
<annotation oncvpsp-xc-code="-116133" oncvpsp-xc-type="libxc-interface" />
<libxc-info number-of-functionals="2">
<functional name="Perdew, Burke &amp; Ernzerhof SOL (GGA)" type="exchange"
 id="116" />
<functional name="Perdew, Burke &amp; Ernzerhof SOL (GGA)" type="correlation"
 id="133" />
</libxc-info>
</exchange-correlation>
<valence-configuration total-valence-charge="17">
<shell n="4" l="d" occupation="10" />
<shell n="5" l="s" occupation="2" />
<shell n="5" l="p" occupation="5" />
</valence-configuration>
</pseudo-atom-spec>
<grid npts="458">
<annotation type="sampled from oncvpsp log grid"
 recipe="r(i:1..N) = r1*exp(a*(i-1)) + r=0; resampled"
 recipe-cont="r1: scale; a: step" scale="0.943396226415E-05"
 step="0.119285708653E-01" delta="0.500000000000E-02" rmax="44.3807093700" />
<grid-data>
  0.000000000000E+00  5.007762362137E-03  1.012264367117E-02  1.518557966799E-02
  2.021918633661E-02  2.536257896747E-02  3.069598770929E-02  3.584497442415E-02
  4.087087281817E-02  4.604887635970E-02  5.126767823703E-02  5.640112283188E-02
  6.204858043287E-02  6.745209415252E-02  7.245669368045E-02  7.783260883245E-02
  8.360738932391E-02  8.874568074888E-02  9.419975812269E-02  9.998902882364E-02
  1.061340929567E-01  1.113209650746E-01  1.167613244709E-01  1.224675593053E-01
  1.284526631584E-01  1.347302646194E-01  1.413146583191E-01  1.464632781427E-01
  1.517994813805E-01  1.573301023957E-01  1.630622245526E-01  1.690031892890E-01
  1.751606055187E-01  1.815423593765E-01  1.881566243185E-01  1.950118715903E-01
  2.021168810766E-01  2.094807525460E-01  2.145384558354E-01  2.197182723131E-01
  2.250231502799E-01  2.304561092202E-01  2.360202415212E-01  2.417187142325E-01
  2.475547708689E-01  2.535317332568E-01  2.596530034246E-01  2.659220655392E-01
  2.723424878896E-01  2.789179249172E-01  2.856521192964E-01  2.925489040647E-01
  2.996122048045E-01  3.068460418773E-01  3.142545327123E-01  3.218418941502E-01
  3.296124448425E-01  3.375706077108E-01  3.457209124634E-01  3.540679981739E-01
  3.626166159218E-01  3.713716314966E-01  3.803380281675E-01  3.895209095195E-01
  3.989255023590E-01  4.085571596879E-01  4.184213637514E-01  4.234424201164E-01
  4.285237291578E-01  4.336660139077E-01  4.388700060746E-01  4.441364461475E-01
  4.494660835013E-01  4.548596765033E-01  4.603179926214E-01  4.658418085328E-01
  4.714319102352E-01  4.770890931580E-01  4.828141622759E-01  4.886079322232E-01
  4.944712274099E-01  5.004048821388E-01  5.064097407245E-01  5.124866576132E-01
  5.186364975046E-01  5.248601354746E-01  5.311584571003E-01  5.375323585855E-01
  5.439827468885E-01  5.505105398512E-01  5.571166663294E-01  5.638020663254E-01
  5.705676911213E-01  5.774145034147E-01  5.843434774557E-01  5.913555991852E-01
  5.984518663754E-01  6.056332887719E-01  6.129008882372E-01  6.202556988960E-01
  6.276987672828E-01  6.352311524901E-01  6.428539263200E-01  6.505681734359E-01
  6.583749915171E-01  6.662754914153E-01  6.742707973123E-01  6.823620468800E-01
  6.905503914426E-01  6.988369961399E-01  7.072230400936E-01  7.157097165747E-01
  7.242982331736E-01  7.329898119717E-01  7.417856897153E-01  7.506871179919E-01
  7.596953634078E-01  7.688117077687E-01  7.780374482620E-01  7.873738976411E-01
  7.968223844128E-01  8.063842530257E-01  8.160608640621E-01  8.258535944308E-01
  8.357638375640E-01  8.457930036147E-01  8.559425196581E-01  8.662138298940E-01
  8.766083958527E-01  8.871276966030E-01  8.977732289622E-01  9.085465077098E-01
  9.194490658023E-01  9.304824545919E-01  9.416482440470E-01  9.529480229756E-01
  9.643833992513E-01  9.759560000423E-01  9.876674720428E-01  9.995194817073E-01
  1.011513715488E+00  1.023651880074E+00  1.035935702635E+00  1.048366931066E+00
  1.060947334239E+00  1.073678702250E+00  1.086562846677E+00  1.099601600837E+00
  1.112796820047E+00  1.126150381888E+00  1.139664186470E+00  1.153340156708E+00
  1.167180238588E+00  1.181186401451E+00  1.195360638269E+00  1.209704965928E+00
  1.224221425519E+00  1.238912082625E+00  1.253779027617E+00  1.268824375948E+00
  1.284050268460E+00  1.299458871681E+00  1.315052378141E+00  1.330833006679E+00
  1.346803002759E+00  1.362964638792E+00  1.379320214458E+00  1.395872057031E+00
  1.412622521716E+00  1.429573991976E+00  1.446728879880E+00  1.464089626439E+00
  1.481658701956E+00  1.499438606379E+00  1.517431869656E+00  1.535641052092E+00
  1.554068744717E+00  1.572717569653E+00  1.591590180489E+00  1.610689262655E+00
  1.630017533807E+00  1.649577744213E+00  1.669372677143E+00  1.689405149269E+00
  1.709678011060E+00  1.730194147193E+00  1.750956476959E+00  1.771967954683E+00
  1.793231570139E+00  1.814750348981E+00  1.836527353168E+00  1.858565681406E+00
  1.880868469583E+00  1.903438891218E+00  1.926280157913E+00  1.949395519808E+00
  1.972788266046E+00  1.996461725238E+00  2.020419265941E+00  2.044664297132E+00
  2.069200268698E+00  2.094030671922E+00  2.119159039985E+00  2.144588948465E+00
  2.170324015847E+00  2.196367904037E+00  2.222724318885E+00  2.249397010712E+00
  2.276389774840E+00  2.303706452138E+00  2.331350929564E+00  2.359327140719E+00
  2.387639066408E+00  2.416290735204E+00  2.445286224027E+00  2.474629658715E+00
  2.504325214620E+00  2.534377117195E+00  2.564789642602E+00  2.595567118313E+00
  2.626713923733E+00  2.658234490817E+00  2.690133304707E+00  2.722414904364E+00
  2.755083883216E+00  2.788144889815E+00  2.821602628492E+00  2.855461860034E+00
  2.889727402355E+00  2.924404131183E+00  2.959496980757E+00  2.995010944526E+00
  3.030951075861E+00  3.067322488771E+00  3.104130358636E+00  3.141379922940E+00
  3.179076482015E+00  3.217225399799E+00  3.255832104597E+00  3.294902089852E+00
  3.334440914930E+00  3.374454205909E+00  3.414947656380E+00  3.455927028257E+00
  3.497398152596E+00  3.539366930427E+00  3.581839333592E+00  3.624821405595E+00
  3.668319262462E+00  3.712339093612E+00  3.756887162735E+00  3.801969808688E+00
  3.847593446392E+00  3.893764567749E+00  3.940489742562E+00  3.987775619473E+00
  4.035628926907E+00  4.084056474029E+00  4.133065151718E+00  4.182661933538E+00
  4.232853876741E+00  4.283648123262E+00  4.335051900741E+00  4.387072523550E+00
  4.439717393832E+00  4.492994002558E+00  4.546909930589E+00  4.601472849756E+00
  4.656690523953E+00  4.712570810241E+00  4.769121659963E+00  4.826351119883E+00
  4.884267333322E+00  4.942878541322E+00  5.002193083817E+00  5.062219400823E+00
  5.122966033633E+00  5.184441626037E+00  5.246654925549E+00  5.309614784656E+00
  5.373330162072E+00  5.437810124016E+00  5.503063845505E+00  5.569100611651E+00
  5.635929818990E+00  5.703560976818E+00  5.772003708540E+00  5.841267753043E+00
  5.911362966079E+00  5.982299321672E+00  6.054086913532E+00  6.126735956495E+00
  6.200256787972E+00  6.274659869428E+00  6.349955787861E+00  6.426155257316E+00
  6.503269120403E+00  6.581308349848E+00  6.660284050046E+00  6.740207458647E+00
  6.821089948151E+00  6.902943027529E+00  6.985778343859E+00  7.069607683985E+00
  7.154442976193E+00  7.240296291907E+00  7.327179847410E+00  7.415106005579E+00
  7.504087277646E+00  7.594136324978E+00  7.685265960878E+00  7.777489152408E+00
  7.870819022237E+00  7.965268850504E+00  8.060852076710E+00  8.157582301630E+00
  8.255473289250E+00  8.354538968721E+00  8.454793436346E+00  8.556250957582E+00
  8.658925969073E+00  8.762833080702E+00  8.867987077670E+00  8.974402922602E+00
  9.082095757673E+00  9.191080906765E+00  9.301373877647E+00  9.412990364178E+00
  9.525946248549E+00  9.640257603531E+00  9.755940694773E+00  9.873011983111E+00
  9.991488126908E+00  1.011138598443E+01  1.023272261624E+01  1.035551528764E+01
  1.047978147109E+01  1.060553884874E+01  1.073280531493E+01  1.086159897871E+01
  1.099193816645E+01  1.112384142445E+01  1.125732752154E+01  1.139241545180E+01
  1.152912443722E+01  1.166747393047E+01  1.180748361764E+01  1.194917342105E+01
  1.209256350210E+01  1.223767426413E+01  1.238452635529E+01  1.253314067156E+01
  1.268353835962E+01  1.283574081993E+01  1.298976970977E+01  1.314564694629E+01
  1.330339470964E+01  1.346303544616E+01  1.362459187151E+01  1.378808697397E+01
  1.395354401766E+01  1.412098654587E+01  1.429043838442E+01  1.446192364504E+01
  1.463546672878E+01  1.481109232952E+01  1.498882543748E+01  1.516869134272E+01
  1.535071563884E+01  1.553492422650E+01  1.572134331722E+01  1.590999943703E+01
  1.610091943027E+01  1.629413046344E+01  1.648966002900E+01  1.668753594935E+01
  1.688778638074E+01  1.709043981731E+01  1.729552509511E+01  1.750307139626E+01
  1.771310825301E+01  1.792566555205E+01  1.814077353867E+01  1.835846282113E+01
  1.857876437499E+01  1.880170954749E+01  1.902733006206E+01  1.925565802280E+01
  1.948672591908E+01  1.972056663011E+01  1.995721342967E+01  2.019669999082E+01
  2.043906039071E+01  2.068432911540E+01  2.093254106479E+01  2.118373155756E+01
  2.143793633625E+01  2.169519157229E+01  2.195553387116E+01  2.221900027761E+01
  2.248562828094E+01  2.275545582031E+01  2.302852129016E+01  2.330486354564E+01
  2.358452190819E+01  2.386753617108E+01  2.415394660514E+01  2.444379396440E+01
  2.473711949197E+01  2.503396492588E+01  2.533437250499E+01  2.563838497505E+01
  2.594604559475E+01  2.625739814188E+01  2.657248691959E+01  2.689135676262E+01
  2.721405304377E+01  2.754062168030E+01  2.787110914046E+01  2.820556245015E+01
  2.854402919955E+01  2.888655754994E+01  2.923319624054E+01  2.958399459543E+01
  2.993900253057E+01  3.029827056094E+01  3.066184980767E+01  3.102979200536E+01
  3.140214950943E+01  3.177897530354E+01  3.216032300718E+01  3.254624688327E+01
  3.293680184587E+01  3.333204346802E+01  3.373202798964E+01  3.413681232551E+01
  3.454645407342E+01  3.496101152230E+01  3.538054366057E+01  3.580511018449E+01
  3.623477150671E+01  3.666958876479E+01  3.710962382997E+01  3.755493931593E+01
  3.800559858772E+01  3.846166577077E+01  3.892320576002E+01  3.939028422914E+01
  3.986296763989E+01  4.034132325157E+01  4.082541913059E+01  4.131532416015E+01
  4.181110805007E+01  4.231284134668E+01  4.282059544284E+01  4.333444258815E+01
  4.385445589921E+01  4.438070937000E+01
</grid-data>
</grid>
<valence-charge total-charge="17" is-unscreening-charge="yes"
 rescaled-to-z-pseudo="no">
<radfunc>
<data npts="458">
  1.341401798570E-02  1.342483646116E-02  1.346251766534E-02  1.353915831959E-02
  1.367525851400E-02  1.390648254422E-02  1.428715193979E-02  1.484124713818E-02
  1.561476965759E-02  1.671771716000E-02  1.821977214554E-02  2.016288646197E-02
  2.294185490331E-02  2.634598637809E-02  3.025705936419E-02  3.539239735787E-02
  4.213910450311E-02  4.935469100497E-02  5.841605406650E-02  6.979454502504E-02
  8.407956575391E-02  9.808896414505E-02  1.148842422818E-01  1.350110468967E-01
  1.591180483262E-01  1.879750222022E-01  2.224936394334E-01  2.527391574459E-01
  2.872956036915E-01  3.267550945359E-01  3.717853112703E-01  4.231377394398E-01
  4.816564594039E-01  5.482874299081E-01  6.240881718099E-01  7.102377154780E-01
  8.080466212255E-01  9.189668157556E-01  1.000982611026E+00  1.090048452177E+00
  1.186710546121E+00  1.291548278097E+00  1.405174783236E+00  1.528237256206E+00
  1.661416942492E+00  1.805428747757E+00  1.961020394290E+00  2.128971045692E+00
  2.310089312896E+00  2.505210546471E+00  2.715193312029E+00  2.940914937790E+00
  3.183266016180E+00  3.443143735064E+00  3.721443909385E+00  4.019051580982E+00
  4.336830053873E+00  4.675608234986E+00  5.036166156971E+00  5.419218571248E+00
  5.825396516817E+00  6.255226794634E+00  6.709109309706E+00  7.187292284610E+00
  7.689845400173E+00  8.216630982564E+00  8.767273432226E+00  9.051350688008E+00
  9.341127179607E+00  9.636474591171E+00  9.937243556146E+00  1.024326259954E+01
  1.055433708648E+01  1.087024818342E+01  1.119075183894E+01  1.151557779184E+01
  1.184442861466E+01  1.217697880145E+01  1.251287390947E+01  1.285172976480E+01
  1.319313174269E+01  1.353663413409E+01  1.388175961016E+01  1.422799879751E+01
  1.457480997700E+01  1.492161891960E+01  1.526781887320E+01  1.561277071450E+01
  1.595580328012E+01  1.629621389168E+01  1.663326908883E+01  1.696620558465E+01
  1.729423145722E+01  1.761652759058E+01  1.793224937769E+01  1.824052869711E+01
  1.854047617392E+01  1.883118373389E+01  1.911172745846E+01  1.938117074616E+01
  1.963856778368E+01  1.988296732759E+01  2.011341679479E+01  2.032896665687E+01
  2.052867512987E+01  2.071161314782E+01  2.087686960404E+01  2.102355684034E+01
  2.115081635987E+01  2.125782473468E+01  2.134379967445E+01  2.140800621813E+01
  2.144976300509E+01  2.146844857798E+01  2.146350766440E+01  2.143445738005E+01
  2.138089329190E+01  2.130249527574E+01  2.119903309911E+01  2.107037165787E+01
  2.091647579215E+01  2.073741460637E+01  2.053336521722E+01  2.030461585425E+01
  2.005156823921E+01  1.977473917333E+01  1.947476126570E+01  1.915238274173E+01
  1.880846627739E+01  1.844398681378E+01  1.806002831588E+01  1.765777945136E+01
  1.723852817739E+01  1.680365523779E+01  1.635462658751E+01  1.589298477793E+01
  1.542033935250E+01  1.493835632012E+01  1.444874679023E+01  1.395325487142E+01
  1.345364495116E+01  1.295168849054E+01  1.244915048160E+01  1.194777572756E+01
  1.144927511657E+01  1.095531206692E+01  1.046748932687E+01  9.987336313292E+00
  9.516297171401E+00  9.055719732093E+00  8.606845533608E+00  8.170801060888E+00
  7.748590338712E+00  7.341088993997E+00  6.949039878710E+00  6.573050318225E+00
  6.213591021104E+00  5.870996656005E+00  5.545468070310E+00  5.237076094049E+00
  4.945766842607E+00  4.671368403333E+00  4.413598765462E+00  4.172074830428E+00
  3.946322321447E+00  3.735786397653E+00  3.539842769667E+00  3.357809110336E+00
  3.188956556672E+00  3.032521106556E+00  2.887714726188E+00  2.753736001006E+00
  2.629780183206E+00  2.515048512093E+00  2.408756708447E+00  2.310142569775E+00
  2.218472618796E+00  2.133047781720E+00  2.053208095101E+00  1.978336459403E+00
  1.907861473533E+00  1.841259397101E+00  1.778055296087E+00  1.717823433011E+00
  1.660186965201E+00  1.604817014784E+00  1.551431172522E+00  1.499791495291E+00
  1.449702054858E+00  1.401006094398E+00  1.353582849542E+00  1.307344093185E+00
  1.262229209975E+00  1.218195273466E+00  1.175205546087E+00  1.133226828245E+00
  1.092230127238E+00  1.052189283355E+00  1.013081373066E+00  9.748874534457E-01
  9.375922556449E-01  9.011834427400E-01  8.656512483538E-01  8.309880210019E-01
  7.971878214852E-01  7.642460513460E-01  7.321591137734E-01  7.009241063331E-01
  6.705385446953E-01  6.410001163807E-01  6.123064634105E-01  5.844549926348E-01
  5.574427123817E-01  5.312660940833E-01  5.059209573411E-01  4.814023769754E-01
  4.577046103956E-01  4.348210439603E-01  4.127441565438E-01  3.914654988750E-01
  3.709756871077E-01  3.512644091338E-01  3.323204421984E-01  3.141316804246E-01
  2.966851709156E-01  2.799671571664E-01  2.639631285854E-01  2.486578749985E-01
  2.340355450840E-01  2.200797077622E-01  2.067734156458E-01  1.940992697084E-01
  1.820394844726E-01  1.705759530016E-01  1.596903111277E-01  1.493640003725E-01
  1.395783291464E-01  1.303145317942E-01  1.215538251911E-01  1.132774626183E-01
  1.054667847147E-01  9.810326735050E-02  9.116856631881E-02  8.464455878570E-02
  7.851338148046E-02  7.275746564187E-02  6.735956876813E-02  6.230280324304E-02
  5.757066193200E-02  5.314704085638E-02  4.901625906542E-02  4.516307583087E-02
  4.157270529100E-02  3.823082866917E-02  3.512360418787E-02  3.223767479260E-02
  2.956017379343E-02  2.707872852437E-02  2.478146211477E-02  2.265699346136E-02
  2.069443548660E-02  1.888339176712E-02  1.721395161693E-02  1.567668371227E-02
  1.426262834867E-02  1.296328842575E-02  1.177061926062E-02  1.067701733615E-02
  9.675308095253E-03  8.758732896520E-03  7.920935249367E-03  7.155946448397E-03
  6.458170726537E-03  5.822370044860E-03  5.243648633756E-03  4.717437395448E-03
  4.239478271880E-03  3.805808674979E-03  3.412746068379E-03  3.056872781180E-03
  2.735021125365E-03  2.444258879333E-03  2.181875190882E-03  1.945366943954E-03
  1.732425624773E-03  1.540924714757E-03  1.368907629853E-03  1.214576218825E-03
  1.076279826593E-03  9.525049229241E-04  8.418652918016E-04  7.430927724202E-04
  6.550285391810E-04  5.766149051001E-04  5.068876307396E-04  4.449687190490E-04
  3.900596753077E-04  3.414352106285E-04  2.984373671524E-04  2.604700430722E-04
  2.269938958992E-04  1.975216028821E-04  1.716134581381E-04  1.488732868214E-04
  1.289446574846E-04  1.115073746638E-04  9.627423459367E-05  8.298802782750E-05
  7.141877338049E-05  6.136116981736E-05  5.263224947157E-05  4.506922270318E-05
  3.852749977964E-05  3.287887860092E-05  2.800988708914E-05  2.382026962871E-05
  2.022160747967E-05  1.713606359782E-05  1.449524278546E-05  1.223915856773E-05
  1.031529864565E-05  8.677781218943E-06  7.286594901631E-06  6.106915372293E-06
  5.108492308335E-06  4.265100550997E-06  3.554049833816E-06  2.955747782144E-06
  2.453311254203E-06  2.032221444597E-06  1.680018508404E-06  1.386031787444E-06
  1.141142029408E-06  9.375722848354E-07  7.687044460567E-07  6.289186559445E-07
  5.134530625105E-07  4.182816280962E-07  3.400079192202E-07  2.757730053367E-07
  2.231757821590E-07  1.802042082496E-07  1.451761027792E-07  1.166882982945E-07
  9.357307562306E-08  7.486092936099E-08  5.974882241095E-08  4.757318748070E-08
  3.778702302167E-08  2.994051149008E-08  2.366465974760E-08  1.865752556207E-08
  1.467265117661E-08  1.150937541623E-08  9.004740392054E-09  7.026748108849E-09
  5.468756711606E-09  4.244836215674E-09  3.285929810636E-09  2.536689633675E-09
  1.952875661468E-09  1.499223424909E-09  1.147700929927E-09  8.760877612890E-10
  6.668201165229E-10  5.060546984886E-10  3.829121972087E-10  2.888677002065E-10
  2.172609504215E-10  1.629040666999E-10  1.217682811222E-10  9.073454116492E-11
  6.739556967745E-11  4.989925576095E-11  3.682513732197E-11  2.708729365417E-11
  1.985824728618E-11  1.450952410774E-11  1.056537821315E-11  7.666885815277E-12
  5.544178689693E-12  3.995045194327E-12  2.868495472900E-12  2.052183253117E-12
  1.462813203995E-12  1.038851302387E-12  7.350052941985E-13  5.180606894454E-13
  3.637509921490E-13  2.544140786077E-13  1.772438919065E-13  1.229912227362E-13
  8.500195735422E-14  5.850792545665E-14  4.010607611033E-14  2.737750188175E-14
  1.860989098992E-14  1.259615900296E-14  8.488957941015E-15  5.695999505108E-15
  3.805063474952E-15  2.530504270525E-15  1.675259016708E-15  1.103984048709E-15
  7.241449501112E-16  4.727654375936E-16  3.071841233768E-16  1.986367807916E-16
  1.278212754263E-16  8.184715755011E-17  5.214769529153E-17  3.305761108278E-17
  2.084904098377E-17  1.308133542873E-17  8.164737721544E-18  5.069078135581E-18
  3.130288783589E-18  1.922561379109E-18  1.174323483984E-18  7.133093615333E-19
  4.308451561197E-19  2.587542879047E-19  1.498496247218E-19  8.905008088960E-20
  5.260553921000E-20  3.088965923214E-20  0.000000000000E+00  0.000000000000E+00
  0.000000000000E+00  0.000000000000E+00  0.000000000000E+00  0.000000000000E+00
  0.000000000000E+00  0.000000000000E+00  0.000000000000E+00  0.000000000000E+00
  0.000000000000E+00  0.000000000000E+00  0.000000000000E+00  0.000000000000E+00
  0.000000000000E+00  0.000000000000E+00  0.000000000000E+00  0.000000000000E+00
  0.000000000000E+00  0.000000000000E+00  0.000000000000E+00  0.000000000000E+00
  0.000000000000E+00  0.000000000000E+00  0.000000000000E+00  0.000000000000E+00
  0.000000000000E+00  0.000000000000E+00  0.000000000000E+00  0.000000000000E+00
  0.000000000000E+00  0.000000000000E+00
</data>
</radfunc>
</valence-charge>
<pseudocore-charge matching-radius="0.787373897641"
 number-of-continuous-derivatives="4">
<annotation model-charge-form="Teter function with specified parameters" />
<radfunc>
<data npts="291">
  1.889504550665E+02  1.889350006980E+02  1.888873156720E+02  1.888083890233E+02
  1.886986660970E+02  1.885544135516E+02  1.883706007759E+02  1.881601676660E+02
  1.879236198511E+02  1.876478501417E+02  1.873371169169E+02  1.869994992639E+02
  1.865916472317E+02  1.861658963703E+02  1.857407952246E+02  1.852514028405E+02
  1.846881960476E+02  1.841546747883E+02  1.835552897647E+02  1.828821561203E+02
  1.821265111794E+02  1.814560893676E+02  1.807212074645E+02  1.799159608708E+02
  1.790339656053E+02  1.780683326005E+02  1.770116437174E+02  1.761545992828E+02
  1.752382945736E+02  1.742589759775E+02  1.732127050184E+02  1.720953578103E+02
  1.709026262146E+02  1.696300210296E+02  1.682728775884E+02  1.668263641807E+02
  1.652854937661E+02  1.636451394943E+02  1.624937143942E+02  1.612941650697E+02
  1.600448972768E+02  1.587443061948E+02  1.573907814250E+02  1.559827126135E+02
  1.545184957452E+02  1.529965401541E+02  1.514152762971E+02  1.497731643392E+02
  1.480687035945E+02  1.463004428682E+02  1.444669917436E+02  1.425670328506E+02
  1.405993351517E+02  1.385627682755E+02  1.364563179161E+02  1.342791023147E+02
  1.320303898217E+02  1.297096175298E+02  1.273164109502E+02  1.248506046870E+02
  1.223122640441E+02  1.197017074745E+02  1.170195297559E+02  1.142666257444E+02
  1.114442145269E+02  1.085538637534E+02  1.055975138910E+02  1.040953035279E+02
  1.025775020968E+02  1.010444675237E+02  9.949658536201E+01  9.793426944804E+01
  9.635796252727E+01  9.476813684852E+01  9.316529472164E+01  9.154996903415E+01
  8.992272372224E+01  8.828415419143E+01  8.663488768167E+01  8.497558357188E+01
  8.330693361844E+01  8.162966212217E+01  7.994452601809E+01  7.825231488226E+01
  7.655385084975E+01  7.484998843773E+01  7.314161426779E+01  7.142964668138E+01
  6.971503524225E+01  6.799876012016E+01  6.628183134968E+01  6.456528795857E+01
  6.285019696005E+01  6.113765220364E+01  5.942877307961E+01  5.772470307224E+01
  5.602660815777E+01  5.433567504316E+01  5.265310924255E+01  5.098013298872E+01
  4.931798297785E+01  4.766790794638E+01  4.603116607991E+01  4.440902225481E+01
  4.280274511450E+01  4.121360398331E+01  3.964286562211E+01  3.809179083130E+01
  3.656163090799E+01  3.505362396574E+01  3.356899112695E+01  3.210893259912E+01
  3.067462364847E+01  2.926721048568E+01  2.788780608043E+01  2.653748592318E+01
  2.521728375447E+01  2.392818728359E+01  2.267113392054E+01  2.144700654657E+01
  2.025662935037E+01  1.910076375857E+01  1.798010449039E+01  1.689527576772E+01
  1.584682771289E+01  1.483523296715E+01  1.386088356364E+01  1.292408808877E+01
  1.202506916599E+01  1.116396129561E+01  1.034080908351E+01  9.555565890560E+00
  8.808092932758E+00  8.098158860432E+00  7.425439841928E+00  6.789520174489E+00
  6.189893441382E+00  5.625964230359E+00  5.097050424008E+00  4.602386067560E+00
  4.141124814273E+00  3.712343942611E+00  3.315048933201E+00  2.948178586971E+00
  2.610610659030E+00  2.301167975891E+00  2.018624996523E+00  1.761714770735E+00
  1.529136241463E+00  1.319561830971E+00  1.131645244718E+00  9.640294210692E-01
  8.153545500190E-01  6.842660800342E-01  5.694226289895E-01  4.695037131878E-01
  3.832172077228E-01  3.093064520743E-01  2.465569169279E-01  1.938023518376E-01
  1.499303385620E-01  1.138871816955E-01  8.468207657537E-02  6.139050428820E-02
  4.315681483525E-02  2.919597197291E-02  1.879444673435E-02  1.131026091104E-02
  6.172196544466E-03  2.878202424127E-03  9.930433533451E-04  1.452521495241E-04
  2.345759791039E-05  3.721734819224E-04  9.871439840101E-04  1.710348828949E-03
  2.424777206348E-03  3.049082496040E-03  3.532229933798E-03  3.848246483997E-03
  3.991176314214E-03  3.970336482563E-03  3.805955949917E-03  3.525267125376E-03
  3.159103261329E-03  2.739037649397E-03  2.295082329896E-03  1.853945577890E-03
  1.437829469639E-03  1.063732073692E-03  7.432039353893E-04  4.824961565815E-04
  2.830280426878E-04  1.420963972331E-04  5.374633242332E-05  9.724996046190E-06
  4.447594819973E-07  1.589084201925E-05  4.641954897062E-05  8.340659600320E-05
  1.197195695951E-04  1.500035387735E-04  1.707832618847E-04  1.803984314705E-04
  1.787991728237E-04  1.672369154339E-04  1.478903572304E-04  1.234673524823E-04
  9.682125743681E-05  7.061491448758E-05  4.705764341758E-05  2.773113499828E-05
  1.350993954782E-05  4.572293405099E-06  4.882710450781E-07  3.654976646289E-07
  3.028497814234E-06  7.206500529912E-06  1.170616345508E-05  1.554989036926E-05
  1.806658466054E-05  1.892897459184E-05  1.813911479991E-05  1.597036065658E-05
  1.287919640658E-05  9.403173620074E-06  6.061596664336E-06  3.273545934729E-06
  1.303775211250E-06  2.416631224599E-07  0.000000000000E+00  0.000000000000E+00
  0.000000000000E+00  0.000000000000E+00  0.000000000000E+00  0.000000000000E+00
  0.000000000000E+00  0.000000000000E+00  0.000000000000E+00  0.000000000000E+00
  0.000000000000E+00  0.000000000000E+00  0.000000000000E+00  0.000000000000E+00
  0.000000000000E+00  0.000000000000E+00  0.000000000000E+00  0.000000000000E+00
  0.000000000000E+00  0.000000000000E+00  0.000000000000E+00  0.000000000000E+00
  0.000000000000E+00  0.000000000000E+00  0.000000000000E+00  0.000000000000E+00
  0.000000000000E+00  0.000000000000E+00  0.000000000000E+00  0.000000000000E+00
  0.000000000000E+00  0.000000000000E+00  0.000000000000E+00  0.000000000000E+00
  0.000000000000E+00  0.000000000000E+00  0.000000000000E+00  0.000000000000E+00
  0.000000000000E+00  0.000000000000E+00  0.000000000000E+00  0.000000000000E+00
  0.000000000000E+00  0.000000000000E+00  0.000000000000E+00  0.000000000000E+00
  0.000000000000E+00  0.000000000000E+00  0.000000000000E+00  0.000000000000E+00
  0.000000000000E+00  0.000000000000E+00  0.000000000000E+00  0.000000000000E+00
  0.000000000000E+00  0.000000000000E+00  0.000000000000E+00  0.000000000000E+00
  0.000000000000E+00  0.000000000000E+00  0.000000000000E+00
</data>
</radfunc>
</pseudocore-charge>
<semilocal-potentials set="lj">
<slps n="5" l="s" j="0.5" rc="1.97278826605" eref="-0.640434227318">
<radfunc>
<data npts="291">
  1.767384540139E+01  1.766268657098E+01  1.762829137037E+01  1.757148014309E+01
  1.749274644766E+01  1.738966605527E+01  1.725902050007E+01  1.711041454870E+01
  1.694457799167E+01  1.675284431292E+01  1.653883907759E+01  1.630873005648E+01
  1.603404660913E+01  1.575108527002E+01  1.547233051629E+01  1.515599308291E+01
  1.479786866549E+01  1.446433032119E+01  1.409607629663E+01  1.369044505898E+01
  1.324479707862E+01  1.285774483757E+01  1.244220463012E+01  1.199703069086E+01
  1.152120178358E+01  1.101385551714E+01  1.047432506769E+01  1.004828608800E+01
  9.603810896907E+00  9.140911695878E+00  8.659705478091E+00  8.160422643088E+00
  7.643414965748E+00  7.109162696302E+00  6.558280563692E+00  5.991522457490E+00
  5.409784574932E+00  4.814106839890E+00  4.409822438713E+00  4.000250995258E+00
  3.585805289192E+00  3.166924644341E+00  2.744073999370E+00  2.317742794897E+00
  1.888443682110E+00  1.456711060403E+00  1.023099453911E+00  5.881817390957E-01
  1.525472376550E-01 -2.832003091046E-01 -7.184448666819E-01 -1.152560315571E+00
 -1.584912721329E+00 -2.014862646163E+00 -2.441767481670E+00 -2.864983782841E+00
 -3.283869584408E+00 -3.697786682097E+00 -4.106102863313E+00 -4.508194074245E+00
 -4.903446513294E+00 -5.291258644082E+00 -5.671043125006E+00 -6.042228656379E+00
 -6.404261750523E+00 -6.756608434668E+00 -7.098755901205E+00 -7.265850861023E+00
 -7.430214124401E+00 -7.591788261340E+00 -7.750517467322E+00 -7.906347615002E+00
 -8.059226306946E+00 -8.209102929699E+00 -8.355928709469E+00 -8.499656769746E+00
 -8.640242191150E+00 -8.777642073830E+00 -8.911815602735E+00 -9.042724116058E+00
 -9.170331177176E+00 -9.294602650381E+00 -9.415506780723E+00 -9.533014278182E+00
 -9.647098406485E+00 -9.757735076773E+00 -9.864902946309E+00 -9.968583522406E+00
 -1.006876127168E+01 -1.016542373470E+01 -1.025856164606E+01 -1.034816905974E+01
 -1.043424347979E+01 -1.051678599585E+01 -1.059580142349E+01 -1.067129844875E+01
 -1.074328977633E+01 -1.081179228099E+01 -1.087682716105E+01 -1.093842009328E+01
 -1.099660138794E+01 -1.105140614271E+01 -1.110287439406E+01 -1.115105126430E+01
 -1.119598710253E+01 -1.123773761734E+01 -1.127636399896E+01 -1.131193302826E+01
 -1.134451716990E+01 -1.137419464658E+01 -1.140104949122E+01 -1.142517157350E+01
 -1.144665659735E+01 -1.146560606539E+01 -1.148212720653E+01 -1.149633286258E+01
 -1.150834132992E+01 -1.151827615190E+01 -1.152626585827E+01 -1.153244364744E+01
 -1.153694700799E+01 -1.153991727616E+01 -1.154149912608E+01 -1.154183999043E+01
 -1.154108940946E+01 -1.153939830712E+01 -1.153691819381E+01 -1.153380029600E+01
 -1.153019461403E+01 -1.152624891029E+01 -1.152210763094E+01 -1.151791076569E+01
 -1.151379265089E+01 -1.150988072270E+01 -1.150629422800E+01 -1.150314290221E+01
 -1.150052562422E+01 -1.149852906033E+01 -1.149722631057E+01 -1.149667557246E+01
 -1.149691883960E+01 -1.149798065466E+01 -1.149986693909E+01 -1.150256392495E+01
 -1.150603721703E+01 -1.151023101643E+01 -1.151506753844E+01 -1.152044665836E+01
 -1.152624581629E+01 -1.153232020673E+01 -1.153850326827E+01 -1.154460747290E+01