<?xml version="1.0" encoding="UTF-8" ?>
<psml version="1.1" energy_unit="hartree" length_unit="bohr"
 uuid="702ec960-539f-11e8-6aea-0e78fee15b65"
 xmlns="http://esl.cecam.org/PSML/ns/1.1">
<provenance creator="ONCVPSP-3.3.0+psml-3.3.0-73 (fully-relativistic)"
 date="2018-05-09">
<annotation action="semilocal-pseudopotential-generation"
 action-cont="projectors-generation" />
<input-file name="oncvpsp-input">
<![CDATA[# atsym z nc nv iexc psfile
I 53 9 2 -116133 upf
# n l f
1 0 2.0
2 0 2.0
2 1 6.0
3 0 2.0
3 1 6.0
3 2 10.0
4 0 2.0
4 1 6.0
4 2 10.0
5 0 2.0
5 1 5.0
# lmax
2
# l rc ep ncon nbas qcut
0 2.0 0.0 4 7 3.7
1 2.15 0.0 4 7 4.0
2 2.25 0.1 4 8 4.6
# lloc lpopt rc5 dvloc0
4 5 2.0 0.0
# l nproj debl
0 2 2.2
1 2 2.5
2 2 3.0
# icmod fcfact
3 4 1.34
# epsh1 epsh2 depsh
-12.0 12.0 0.02
# rlmax drl
6.0 0.01
 0
]]>
</input-file>
</provenance>
<pseudo-atom-spec atomic-label="I" atomic-number="53" z-pseudo="7"
 flavor="Hamann&apos;s oncvpsp" relativity="dirac" spin-dft="no"
 core-corrections="yes">
<annotation pseudo-energy="-11.5943401899" />
<exchange-correlation>
<annotation oncvpsp-xc-code="-116133" oncvpsp-xc-type="libxc-interface" />
<libxc-info number-of-functionals="2">
<functional name="Perdew, Burke &amp; Ernzerhof SOL (GGA)" type="exchange"
 id="116" />
<functional name="Perdew, Burke &amp; Ernzerhof SOL (GGA)" type="correlation"
 id="133" />
</libxc-info>
</exchange-correlation>
<valence-configuration total-valence-charge="7">
<shell n="5" l="s" occupation="2" />
<shell n="5" l="p" occupation="5" />
</valence-configuration>
</pseudo-atom-spec>
<grid npts="458">
<annotation type="sampled from oncvpsp log grid"
 recipe="r(i:1..N) = r1*exp(a*(i-1)) + r=0; resampled"
 recipe-cont="r1: scale; a: step" scale="0.943396226415E-05"
 step="0.119285708653E-01" delta="0.500000000000E-02" rmax="44.3807093700" />
<grid-data>
  0.000000000000E+00  5.007762362137E-03  1.012264367117E-02  1.518557966799E-02
  2.021918633661E-02  2.536257896747E-02  3.069598770929E-02  3.584497442415E-02
  4.087087281817E-02  4.604887635970E-02  5.126767823703E-02  5.640112283188E-02
  6.204858043287E-02  6.745209415252E-02  7.245669368045E-02  7.783260883245E-02
  8.360738932391E-02  8.874568074888E-02  9.419975812269E-02  9.998902882364E-02
  1.061340929567E-01  1.113209650746E-01  1.167613244709E-01  1.224675593053E-01
  1.284526631584E-01  1.347302646194E-01  1.413146583191E-01  1.464632781427E-01
  1.517994813805E-01  1.573301023957E-01  1.630622245526E-01  1.690031892890E-01
  1.751606055187E-01  1.815423593765E-01  1.881566243185E-01  1.950118715903E-01
  2.021168810766E-01  2.094807525460E-01  2.145384558354E-01  2.197182723131E-01
  2.250231502799E-01  2.304561092202E-01  2.360202415212E-01  2.417187142325E-01
  2.475547708689E-01  2.535317332568E-01  2.596530034246E-01  2.659220655392E-01
  2.723424878896E-01  2.789179249172E-01  2.856521192964E-01  2.925489040647E-01
  2.996122048045E-01  3.068460418773E-01  3.142545327123E-01  3.218418941502E-01
  3.296124448425E-01  3.375706077108E-01  3.457209124634E-01  3.540679981739E-01
  3.626166159218E-01  3.713716314966E-01  3.803380281675E-01  3.895209095195E-01
  3.989255023590E-01  4.085571596879E-01  4.184213637514E-01  4.234424201164E-01
  4.285237291578E-01  4.336660139077E-01  4.388700060746E-01  4.441364461475E-01
  4.494660835013E-01  4.548596765033E-01  4.603179926214E-01  4.658418085328E-01
  4.714319102352E-01  4.770890931580E-01  4.828141622759E-01  4.886079322232E-01
  4.944712274099E-01  5.004048821388E-01  5.064097407245E-01  5.124866576132E-01
  5.186364975046E-01  5.248601354746E-01  5.311584571003E-01  5.375323585855E-01
  5.439827468885E-01  5.505105398512E-01  5.571166663294E-01  5.638020663254E-01
  5.705676911213E-01  5.774145034147E-01  5.843434774557E-01  5.913555991852E-01
  5.984518663754E-01  6.056332887719E-01  6.129008882372E-01  6.202556988960E-01
  6.276987672828E-01  6.352311524901E-01  6.428539263200E-01  6.505681734359E-01
  6.583749915171E-01  6.662754914153E-01  6.742707973123E-01  6.823620468800E-01
  6.905503914426E-01  6.988369961399E-01  7.072230400936E-01  7.157097165747E-01
  7.242982331736E-01  7.329898119717E-01  7.417856897153E-01  7.506871179919E-01
  7.596953634078E-01  7.688117077687E-01  7.780374482620E-01  7.873738976411E-01
  7.968223844128E-01  8.063842530257E-01  8.160608640621E-01  8.258535944308E-01
  8.357638375640E-01  8.457930036147E-01  8.559425196581E-01  8.662138298940E-01
  8.766083958527E-01  8.871276966030E-01  8.977732289622E-01  9.085465077098E-01
  9.194490658023E-01  9.304824545919E-01  9.416482440470E-01  9.529480229756E-01
  9.643833992513E-01  9.759560000423E-01  9.876674720428E-01  9.995194817073E-01
  1.011513715488E+00  1.023651880074E+00  1.035935702635E+00  1.048366931066E+00
  1.060947334239E+00  1.073678702250E+00  1.086562846677E+00  1.099601600837E+00
  1.112796820047E+00  1.126150381888E+00  1.139664186470E+00  1.153340156708E+00
  1.167180238588E+00  1.181186401451E+00  1.195360638269E+00  1.209704965928E+00
  1.224221425519E+00  1.238912082625E+00  1.253779027617E+00  1.268824375948E+00
  1.284050268460E+00  1.299458871681E+00  1.315052378141E+00  1.330833006679E+00
  1.346803002759E+00  1.362964638792E+00  1.379320214458E+00  1.395872057031E+00
  1.412622521716E+00  1.429573991976E+00  1.446728879880E+00  1.464089626439E+00
  1.481658701956E+00  1.499438606379E+00  1.517431869656E+00  1.535641052092E+00
  1.554068744717E+00  1.572717569653E+00  1.591590180489E+00  1.610689262655E+00
  1.630017533807E+00  1.649577744213E+00  1.669372677143E+00  1.689405149269E+00
  1.709678011060E+00  1.730194147193E+00  1.750956476959E+00  1.771967954683E+00
  1.793231570139E+00  1.814750348981E+00  1.836527353168E+00  1.858565681406E+00
  1.880868469583E+00  1.903438891218E+00  1.926280157913E+00  1.949395519808E+00
  1.972788266046E+00  1.996461725238E+00  2.020419265941E+00  2.044664297132E+00
  2.069200268698E+00  2.094030671922E+00  2.119159039985E+00  2.144588948465E+00
  2.170324015847E+00  2.196367904037E+00  2.222724318885E+00  2.249397010712E+00
  2.276389774840E+00  2.303706452138E+00  2.331350929564E+00  2.359327140719E+00
  2.387639066408E+00  2.416290735204E+00  2.445286224027E+00  2.474629658715E+00
  2.504325214620E+00  2.534377117195E+00  2.564789642602E+00  2.595567118313E+00
  2.626713923733E+00  2.658234490817E+00  2.690133304707E+00  2.722414904364E+00
  2.755083883216E+00  2.788144889815E+00  2.821602628492E+00  2.855461860034E+00
  2.889727402355E+00  2.924404131183E+00  2.959496980757E+00  2.995010944526E+00
  3.030951075861E+00  3.067322488771E+00  3.104130358636E+00  3.141379922940E+00
  3.179076482015E+00  3.217225399799E+00  3.255832104597E+00  3.294902089852E+00
  3.334440914930E+00  3.374454205909E+00  3.414947656380E+00  3.455927028257E+00
  3.497398152596E+00  3.539366930427E+00  3.581839333592E+00  3.624821405595E+00
  3.668319262462E+00  3.712339093612E+00  3.756887162735E+00  3.801969808688E+00
  3.847593446392E+00  3.893764567749E+00  3.940489742562E+00  3.987775619473E+00
  4.035628926907E+00  4.084056474029E+00  4.133065151718E+00  4.182661933538E+00
  4.232853876741E+00  4.283648123262E+00  4.335051900741E+00  4.387072523550E+00
  4.439717393832E+00  4.492994002558E+00  4.546909930589E+00  4.601472849756E+00
  4.656690523953E+00  4.712570810241E+00  4.769121659963E+00  4.826351119883E+00
  4.884267333322E+00  4.942878541322E+00  5.002193083817E+00  5.062219400823E+00
  5.122966033633E+00  5.184441626037E+00  5.246654925549E+00  5.309614784656E+00
  5.373330162072E+00  5.437810124016E+00  5.503063845505E+00  5.569100611651E+00
  5.635929818990E+00  5.703560976818E+00  5.772003708540E+00  5.841267753043E+00
  5.911362966079E+00  5.982299321672E+00  6.054086913532E+00  6.126735956495E+00
  6.200256787972E+00  6.274659869428E+00  6.349955787861E+00  6.426155257316E+00
  6.503269120403E+00  6.581308349848E+00  6.660284050046E+00  6.740207458647E+00
  6.821089948151E+00  6.902943027529E+00  6.985778343859E+00  7.069607683985E+00
  7.154442976193E+00  7.240296291907E+00  7.327179847410E+00  7.415106005579E+00
  7.504087277646E+00  7.594136324978E+00  7.685265960878E+00  7.777489152408E+00
  7.870819022237E+00  7.965268850504E+00  8.060852076710E+00  8.157582301630E+00
  8.255473289250E+00  8.354538968721E+00  8.454793436346E+00  8.556250957582E+00
  8.658925969073E+00  8.762833080702E+00  8.867987077670E+00  8.974402922602E+00
  9.082095757673E+00  9.191080906765E+00  9.301373877647E+00  9.412990364178E+00
  9.525946248549E+00  9.640257603531E+00  9.755940694773E+00  9.873011983111E+00
  9.991488126908E+00  1.011138598443E+01  1.023272261624E+01  1.035551528764E+01
  1.047978147109E+01  1.060553884874E+01  1.073280531493E+01  1.086159897871E+01
  1.099193816645E+01  1.112384142445E+01  1.125732752154E+01  1.139241545180E+01
  1.152912443722E+01  1.166747393047E+01  1.180748361764E+01  1.194917342105E+01
  1.209256350210E+01  1.223767426413E+01  1.238452635529E+01  1.253314067156E+01
  1.268353835962E+01  1.283574081993E+01  1.298976970977E+01  1.314564694629E+01
  1.330339470964E+01  1.346303544616E+01  1.362459187151E+01  1.378808697397E+01
  1.395354401766E+01  1.412098654587E+01  1.429043838442E+01  1.446192364504E+01
  1.463546672878E+01  1.481109232952E+01  1.498882543748E+01  1.516869134272E+01
  1.535071563884E+01  1.553492422650E+01  1.572134331722E+01  1.590999943703E+01
  1.610091943027E+01  1.629413046344E+01  1.648966002900E+01  1.668753594935E+01
  1.688778638074E+01  1.709043981731E+01  1.729552509511E+01  1.750307139626E+01
  1.771310825301E+01  1.792566555205E+01  1.814077353867E+01  1.835846282113E+01
  1.857876437499E+01  1.880170954749E+01  1.902733006206E+01  1.925565802280E+01
  1.948672591908E+01  1.972056663011E+01  1.995721342967E+01  2.019669999082E+01
  2.043906039071E+01  2.068432911540E+01  2.093254106479E+01  2.118373155756E+01
  2.143793633625E+01  2.169519157229E+01  2.195553387116E+01  2.221900027761E+01
  2.248562828094E+01  2.275545582031E+01  2.302852129016E+01  2.330486354564E+01
  2.358452190819E+01  2.386753617108E+01  2.415394660514E+01  2.444379396440E+01
  2.473711949197E+01  2.503396492588E+01  2.533437250499E+01  2.563838497505E+01
  2.594604559475E+01  2.625739814188E+01  2.657248691959E+01  2.689135676262E+01
  2.721405304377E+01  2.754062168030E+01  2.787110914046E+01  2.820556245015E+01
  2.854402919955E+01  2.888655754994E+01  2.923319624054E+01  2.958399459543E+01
  2.993900253057E+01  3.029827056094E+01  3.066184980767E+01  3.102979200536E+01
  3.140214950943E+01  3.177897530354E+01  3.216032300718E+01  3.254624688327E+01
  3.293680184587E+01  3.333204346802E+01  3.373202798964E+01  3.413681232551E+01
  3.454645407342E+01  3.496101152230E+01  3.538054366057E+01  3.580511018449E+01
  3.623477150671E+01  3.666958876479E+01  3.710962382997E+01  3.755493931593E+01
  3.800559858772E+01  3.846166577077E+01  3.892320576002E+01  3.939028422914E+01
  3.986296763989E+01  4.034132325157E+01  4.082541913059E+01  4.131532416015E+01
  4.181110805007E+01  4.231284134668E+01  4.282059544284E+01  4.333444258815E+01
  4.385445589921E+01  4.438070937000E+01
</grid-data>
</grid>
<valence-charge total-charge="7" is-unscreening-charge="yes"
 rescaled-to-z-pseudo="no">
<radfunc>
<data npts="458">
  1.187340433514E-02  1.188647626574E-02  1.192682849727E-02  1.199367907776E-02
  1.208674027135E-02  1.220931133658E-02  1.236586514327E-02  1.254559911499E-02
  1.274828577505E-02  1.298544669289E-02  1.325379629852E-02  1.354671147493E-02
  1.390243843539E-02  1.427597307792E-02  1.465118224218E-02  1.508592252702E-02
  1.558993570984E-02  1.607104958763E-02  1.661582815445E-02  1.723304532599E-02
  1.793276790841E-02  1.855966730309E-02  1.925345574504E-02  2.002165610845E-02
  2.087270498327E-02  2.181607373123E-02  2.286240657130E-02  2.372187487839E-02
  2.465156519543E-02  2.565760218772E-02  2.674668767299E-02  2.792615828370E-02
  2.920404880668E-02  3.058916165123E-02  3.209114289872E-02  3.372056537752E-02
  3.548901918382E-02  3.740921002712E-02  3.878045983832E-02  4.022976287089E-02
  4.176185099977E-02  4.338175287969E-02  4.509481147282E-02  4.690670229053E-02
  4.882345231992E-02  5.085145959387E-02  5.299751334896E-02  5.526881470024E-02
  5.767299774359E-02  6.021815097680E-02  6.291283890790E-02  6.576612369531E-02
  6.878758663737E-02  7.198734930033E-02  7.537609404272E-02  7.896508366178E-02
  8.276617985305E-02  8.679186013967E-02  9.105523289195E-02  9.557005002299E-02
  1.003507169122E-01  1.054122990778E-01  1.107705250911E-01  1.164417852053E-01
  1.224431251567E-01  1.287922345910E-01  1.355074295766E-01  1.390081984643E-01
  1.426076286891E-01  1.463081741590E-01  1.501123221881E-01  1.540225921267E-01
  1.580415338707E-01  1.621717262453E-01  1.664157752659E-01  1.707763122727E-01
  1.752559919405E-01  1.798574901643E-01  1.845835018223E-01  1.894367384182E-01
  1.944199256066E-01  1.995358006052E-01  2.047871094988E-01  2.101766044412E-01
  2.157070407619E-01  2.213811739852E-01  2.272017567708E-01  2.331715357868E-01
  2.392932485238E-01  2.455696200643E-01  2.520033598179E-01  2.585971582381E-01
  2.653536835324E-01  2.722755783814E-01  2.793654566824E-01  2.866259003311E-01
  2.940594560570E-01  3.016686323263E-01  3.094558963263E-01  3.174236710431E-01
  3.255743324426E-01  3.339102067632E-01  3.424335679258E-01  3.511466350619E-01
  3.600515701574E-01  3.691504758051E-01  3.784453930496E-01  3.879382993074E-01
  3.976311063297E-01  4.075256581724E-01  4.176237291233E-01  4.279270215278E-01
  4.384371634395E-01  4.491557060085E-01  4.600841205059E-01  4.712237948635E-01
  4.825760295916E-01  4.941420329170E-01  5.059229149628E-01  5.179196807694E-01
  5.301332219317E-01  5.425643066061E-01  5.552135676144E-01  5.680814883459E-01
  5.811683861375E-01  5.944743927840E-01  6.079994318093E-01  6.217431921070E-01
  6.357050975410E-01  6.498842720795E-01  6.642795000250E-01  6.788891808963E-01
  6.937112785195E-01  7.087432638919E-01  7.239820514005E-01  7.394239280057E-01
  7.550644750379E-01  7.708984823142E-01  7.869198543480E-01  8.031215085150E-01
  8.194952651455E-01  8.360317296426E-01  8.527201668757E-01  8.695483682756E-01
  8.865025122585E-01  9.035670188306E-01  9.207243994832E-01  9.379551037591E-01
  9.552373641830E-01  9.725470415667E-01  9.898574730501E-01  1.007139325595E+00
  1.024360458019E+00  1.041485795027E+00  1.058477217063E+00  1.075293470136E+00
  1.091890100117E+00  1.108219416240E+00  1.124230488772E+00  1.139869185940E+00
  1.155078255243E+00  1.169797454176E+00  1.183963735220E+00  1.197511489517E+00
  1.210372853167E+00  1.222478079317E+00  1.233755978270E+00  1.244134426732E+00
  1.253540945923E+00  1.261903346740E+00  1.269150438392E+00  1.275212795004E+00
  1.280023572610E+00  1.283519366824E+00  1.285641099237E+00  1.286334918479E+00
  1.285553099766E+00  1.283254924949E+00  1.279407523460E+00  1.273986653399E+00
  1.266977401286E+00  1.258374778885E+00  1.248184196043E+00  1.236421789736E+00
  1.223114591588E+00  1.208300518910E+00  1.192028177972E+00  1.174356472552E+00
  1.155354015828E+00  1.135098349262E+00  1.113674978036E+00  1.091176238803E+00
  1.067700021603E+00  1.043348373773E+00  1.018226019042E+00  9.924388297732E-01
  9.660922940446E-01  9.392900219029E-01  9.121323363656E-01  8.847151643007E-01
  8.571297818363E-01  8.294630521832E-01  8.017967061692E-01  7.742063170728E-01
  7.467607930978E-01  7.195221901866E-01  6.925467305784E-01  6.658864992208E-01
  6.395897629794E-01  6.137007003204E-01  5.882595941698E-01  5.633028799063E-01
  5.388632331456E-01  5.149696688772E-01  4.916476525987E-01  4.689192220121E-01
  4.468031176917E-01  4.253149215264E-01  4.044672013402E-01  3.842696604916E-01
  3.647292911818E-01  3.458505302978E-01  3.276354166828E-01  3.100837488066E-01
  2.931932418844E-01  2.769596835700E-01  2.613770874306E-01  2.464378434860E-01
  2.321328651742E-01  2.184517321812E-01  2.053828286502E-01  1.929134763312E-01
  1.810300623680E-01  1.697181613928E-01  1.589626517339E-01  1.487478255546E-01
  1.390574928549E-01  1.298750792373E-01  1.211837174555E-01  1.129663327778E-01
  1.052057222442E-01  9.788462793208E-02  9.098580437886E-02  8.449208033830E-02
  7.838641507173E-02  7.265194939640E-02  6.727205172818E-02  6.223035936801E-02
  5.751081528764E-02  5.309770067300E-02  4.897566348141E-02  4.512974326299E-02
  4.154539248738E-02  3.820849460489E-02  3.510537905710E-02  3.222283343677E-02
  2.954811298154E-02  2.706894757104E-02  2.477354638327E-02  2.265060035484E-02
  2.068928257991E-02  1.887924677608E-02  1.721062394073E-02  1.567401731962E-02
  1.426049580881E-02  1.296158591252E-02  1.176926238136E-02  1.067593765806E-02
  9.674450259956E-03  8.758052229385E-03  7.920395783917E-03  7.155519297980E-03
  6.457832745773E-03  5.822102732206E-03  5.243437234178E-03  4.717270168680E-03
  4.239345897337E-03  3.805703769116E-03  3.412662794339E-03  3.056806533938E-03
  2.734968278474E-03  2.444216581795E-03  2.181841204668E-03  1.945339514402E-03
  1.732403377506E-03  1.540906573918E-03  1.368892753425E-03  1.214563947620E-03
  1.076269644113E-03  9.524964238787E-04  8.418581574664E-04  7.430867514049E-04
  6.550234324537E-04  5.766105543523E-04  5.068839093643E-04  4.449655251585E-04
  3.900569263368E-04  3.414328391683E-04  2.984353177351E-04  2.604682696896E-04
  2.269923600861E-04  1.975202722335E-04  1.716123051585E-04  1.488722880281E-04
  1.289437927059E-04  1.115066264859E-04  9.627358792058E-05  8.298746952917E-05
  7.141829200703E-05  6.136075536539E-05  5.263189319069E-05  4.506891693389E-05
  3.852723781618E-05  3.287865457390E-05  2.800969586436E-05  2.382010671918E-05
  2.022146896858E-05  1.713594607081E-05  1.449514327083E-05  1.223907448346E-05
  1.031522775245E-05  8.677721578523E-06  7.286544839671E-06  6.106873445534E-06
  5.108457275404E-06  4.265071346553E-06  3.554025545680E-06  2.955727631096E-06
  2.453294576184E-06  2.032207675050E-06  1.680007168544E-06  1.386022472232E-06
  1.141134397055E-06  9.375660476590E-07  7.686993625445E-07  6.289145238725E-07
  5.134497130015E-07  4.182789204992E-07  3.400057367118E-07  2.757712511518E-07
  2.231743763710E-07  1.802030850275E-07  1.451752080578E-07  1.166875878008E-07
  9.357251321041E-08  7.486048560632E-08  5.974847343732E-08  4.757291397219E-08
  3.778680940155E-08  2.994034523745E-08  2.366453083091E-08  1.865742597112E-08
  1.467257453703E-08  1.150931667311E-08  9.004695551089E-09  7.026714025295E-09
  5.468730918814E-09  4.244816786268E-09  3.285915244521E-09  2.536678768019E-09
  1.952867598615E-09  1.499217474873E-09  1.147696564690E-09  8.760845786296E-10
  6.668178115008E-10  5.060530410570E-10  3.829110147144E-10  2.888668637700E-10
  2.172603643840E-10  1.629036604848E-10  1.217680029890E-10  9.073435343886E-11
  6.739544512537E-11  4.989917485234E-11  3.682508617091E-11  2.708726248181E-11
  1.985822927919E-11  1.450951457639E-11  1.056537397456E-11  7.666884745090E-12
  5.544179398684E-12  3.995046797247E-12  2.868497424791E-12  2.052185234652E-12
  1.462815042126E-12  1.038852916188E-12  7.350066585102E-13  5.180618109407E-13
  3.637518939753E-13  2.544147908431E-13  1.772444458983E-13  1.229916479722E-13
  8.500227994238E-14  5.850816758655E-14  4.010625608443E-14  2.737763444781E-14
  1.860998780746E-14  1.259622914323E-14  8.489008364008E-15  5.696035485459E-15
  3.805088965699E-15  2.530522204082E-15  1.675271547777E-15  1.103992746442E-15
  7.241509475830E-16  4.727695463799E-16  3.071869202548E-16  1.986386725819E-16
  1.278225469701E-16  8.184800685355E-17  5.214825903020E-17  3.305798294541E-17
  2.084928475365E-17  1.308149423602E-17  8.164840535271E-18  5.069144283643E-18
  3.130331075897E-18  1.922588249552E-18  1.174340448703E-18  7.133200045436E-19
  4.308517907163E-19  2.587583973367E-19  1.498532511188E-19  8.905226470705E-20
  5.260684648923E-20  3.089043708501E-20  0.000000000000E+00  0.000000000000E+00
  0.000000000000E+00  0.000000000000E+00  0.000000000000E+00  0.000000000000E+00
  0.000000000000E+00  0.000000000000E+00  0.000000000000E+00  0.000000000000E+00
  0.000000000000E+00  0.000000000000E+00  0.000000000000E+00  0.000000000000E+00
  0.000000000000E+00  0.000000000000E+00  0.000000000000E+00  0.000000000000E+00
  0.000000000000E+00  0.000000000000E+00  0.000000000000E+00  0.000000000000E+00
  0.000000000000E+00  0.000000000000E+00  0.000000000000E+00  0.000000000000E+00
  0.000000000000E+00  0.000000000000E+00  0.000000000000E+00  0.000000000000E+00
  0.000000000000E+00  0.000000000000E+00
</data>
</radfunc>
</valence-charge>
<pseudocore-charge matching-radius="1.51743186966"
 number-of-continuous-derivatives="4">
<annotation model-charge-form="Teter function with specified parameters" />
<radfunc>
<data npts="291">
  5.186050362896E+00  5.185950981099E+00  5.185644298144E+00  5.185136564836E+00
  5.184430466871E+00  5.183501712972E+00  5.182317516409E+00  5.180960803109E+00
  5.179434422411E+00  5.177653212827E+00  5.175643921636E+00  5.173458077068E+00
  5.170813735102E+00  5.168048919122E+00  5.165283794665E+00  5.162094854061E+00
  5.158417443707E+00  5.154926437220E+00  5.150995799500E+00  5.146570544778E+00
  5.141588911873E+00  5.137156691291E+00  5.132284804554E+00  5.126930092744E+00
  5.121045255939E+00  5.114578476073E+00  5.107473009773E+00  5.101687625418E+00
  5.095479831536E+00  5.088819331127E+00  5.081673737904E+00  5.074008445209E+00
  5.065786488762E+00  5.056968403335E+00  5.047512073467E+00  5.037372578478E+00
  5.026502032120E+00  5.014849417376E+00  5.006619842793E+00  4.998001668381E+00
  4.988977240756E+00  4.979528174316E+00  4.969635327995E+00  4.959278782074E+00
  4.948437815128E+00  4.937090881259E+00  4.925215587729E+00  4.912788673161E+00
  4.899785986483E+00  4.886182466796E+00  4.871952124395E+00  4.857068023173E+00
  4.841502264673E+00  4.825225974083E+00  4.808209288494E+00  4.790421347772E+00
  4.771830288429E+00  4.752403240928E+00  4.732106330862E+00  4.710904684533E+00
  4.688762439462E+00  4.665642760419E+00  4.641507861629E+00  4.616319035816E+00
  4.590036690851E+00  4.562620394778E+00  4.534028930067E+00  4.519279429814E+00
  4.504220358009E+00  4.488846372010E+00  4.473152094187E+00  4.457132114958E+00
  4.440780996047E+00  4.424093273949E+00  4.407063463641E+00  4.389686062524E+00
  4.371955554626E+00  4.353866415052E+00  4.335413114715E+00  4.316590125341E+00
  4.297391924761E+00  4.277813002507E+00  4.257847865714E+00  4.237491045345E+00
  4.216737102736E+00  4.195580636492E+00  4.174016289725E+00  4.152038757654E+00
  4.129642795572E+00  4.106823227194E+00  4.083574953394E+00  4.059892961334E+00
  4.035772334009E+00  4.011208260196E+00  3.986196044838E+00  3.960731119844E+00
  3.934809055346E+00  3.908425571382E+00  3.881576550038E+00  3.854258048049E+00
  3.826466309852E+00  3.798197781102E+00  3.769449122657E+00  3.740217225028E+00
  3.710499223286E+00  3.680292512441E+00  3.649594763280E+00  3.618403938650E+00
  3.586718310200E+00  3.554536475557E+00  3.521857375927E+00  3.488680314114E+00
  3.455004972939E+00  3.420831434036E+00  3.386160197007E+00  3.350992198923E+00
  3.315328834116E+00  3.279171974269E+00  3.242523988737E+00  3.205387765079E+00
  3.167766729761E+00  3.129664868977E+00  3.091086749537E+00  3.052037539784E+00
  3.012523030456E+00  2.972549655460E+00  2.932124512463E+00  2.891255383243E+00
  2.849950753718E+00  2.808219833565E+00  2.766072575349E+00  2.723519693059E+00
  2.680572679954E+00  2.637243825614E+00  2.593546232088E+00  2.549493829010E+00
  2.505101387579E+00  2.460384533255E+00  2.415359757057E+00  2.370044425304E+00
  2.324456787680E+00  2.278615983445E+00  2.232542045676E+00  2.186255903344E+00
  2.139779381099E+00  2.093135196580E+00  2.046346955103E+00  1.999439141542E+00
  1.952437109259E+00  1.905367065896E+00  1.858256055888E+00  1.811131939514E+00
  1.764023368343E+00  1.716959756924E+00  1.669971250564E+00  1.623088689063E+00
  1.576343566290E+00  1.529767985466E+00  1.483394610063E+00  1.437256610244E+00
  1.391387604754E+00  1.345821598232E+00  1.300592913916E+00  1.255736121733E+00
  1.211285961812E+00  1.167277263463E+00  1.123744859722E+00  1.080723497572E+00
  1.038247744007E+00  9.963518881262E-01  9.550698395099E-01  9.144350231362E-01
  8.744802711819E-01  8.352377120666E-01  7.967386571613E-01  7.590134856262E-01
  7.220915278925E-01  6.860009483513E-01  6.507686278616E-01  6.164200467364E-01
  5.829791689145E-01  5.504683280647E-01  5.189081164162E-01  4.883172771426E-01
  4.587126011607E-01  4.301088292352E-01  4.025185602991E-01  3.759521669183E-01
  3.504177188323E-01  3.259209155025E-01  3.024650285895E-01  2.800508552567E-01
  2.586766831639E-01  2.383382679724E-01  2.190288241208E-01  2.007390295613E-01
  1.834570450636E-01  1.671685485887E-01  1.518567851302E-01  1.375026322869E-01
  1.240846816969E-01  1.115793363085E-01  9.996092330108E-02  8.920182229532E-02
  7.927260831072E-02  7.014220873996E-02  6.177807341691E-02  5.414635666139E-02
  4.721210999091E-02  4.093948400185E-02  3.529193774288E-02  3.023245373530E-02
  2.572375664358E-02  2.172853346677E-02  1.820965301360E-02  1.513038234346E-02
  1.245459780661E-02  1.014698830304E-02  8.173248403672E-03  6.500259041972E-03
  5.096253591418E-03  3.930967294429E-03  2.975768202390E-03  2.203768022878E-03
  1.589911547259E-03  1.111043646188E-03  7.459531677903E-04  4.753934477388E-04
  2.820795350836E-04  1.506626446347E-04  6.768275675266E-05  2.150068878598E-05
  2.211348565834E-06  1.540238523691E-06  1.272559830115E-05  3.038884370595E-05
  5.039617081053E-05  6.971433733675E-05  8.626370224999E-05  9.877159371119E-05
  1.066289825732E-04  1.097532634904E-04  1.084596913670E-04  1.033436932672E-04
  9.517588404534E-05  8.481116977035E-05  7.311284106636E-05  6.089205558142E-05
  4.886260333994E-05  3.761036008385E-05  2.757638127996E-05  1.905219183889E-05
  1.218550050860E-05  6.994327346871E-06  3.387387939486E-06  1.188534968637E-06
  1.631171841547E-07  4.427327802114E-08  5.574237315193E-07  1.441542455613E-06
  2.466162643139E-06  3.443474966678E-06  4.235286275653E-06  4.754997925700E-06
  4.965110637668E-06  4.871046060783E-06  4.512277267641E-06  3.951870422863E-06
  3.265553953493E-06  2.531353242056E-06  1.820669024272E-06  1.191453753028E-06
  6.838748627670E-07  3.185731133831E-07  9.735496457482E-08  5.925616562037E-09
  1.809525736838E-08  1.007901952271E-07  2.191800023726E-07  3.412898326962E-07
  4.415932761009E-07  5.032574504125E-07  5.189149292571E-07  4.900402437127E-07
  4.251862873085E-07  3.374660617687E-07  2.417326785078E-07  1.519091362559E-07
  7.885272581735E-08  2.901994723259E-08  4.047048230762E-09
</data>
</radfunc>
</pseudocore-charge>
<semilocal-potentials set="lj">
<slps n="5" l="s" j="0.5" rc="2.02041926594" eref="-0.640434227318">
<radfunc>
<data npts="291">
  2.751115940482E+01  2.750023794662E+01  2.746657435132E+01  2.741097135770E+01
  2.733391177601E+01  2.723302255263E+01  2.710515308646E+01  2.695970345503E+01
  2.679738740065E+01  2.660972161415E+01  2.640025375000E+01  2.617501990474E+01
  2.590615099904E+01  2.562917362981E+01  2.535630801549E+01  2.504664650141E+01
  2.469607037897E+01  2.436955280908E+01  2.400903955255E+01  2.361192126607E+01
  2.317560912900E+01  2.279665023351E+01  2.238978288478E+01  2.195388086408E+01
  2.148793897546E+01  2.099110647374E+01  2.046272281339E+01  2.004545953459E+01
  1.961011340263E+01  1.915669115906E+01  1.868530137815E+01  1.819616278103E+01
  1.768961189583E+01  1.716610984094E+01  1.662624800338E+01  1.607075238651E+01
  1.550048641133E+01  1.491645197464E+01  1.452000367341E+01  1.411831081419E+01
  1.371177051702E+01  1.330080513478E+01  1.288586125819E+01  1.246740853185E+01
  1.204593828570E+01  1.162196198855E+01  1.119600953235E+01  1.076862735870E+01
  1.034037644049E+01  9.911830134086E+00  9.483571918717E+00  9.056193041156E+00
  8.630290084937E+00  8.206462483807E+00  7.785309999444E+00  7.367430183309E+00
  6.953415841873E+00  6.543852523497E+00  6.139316043822E+00  5.740370064769E+00
  5.347563740108E+00  4.961429438177E+00  4.582480549652E+00  4.211209385414E+00
  3.848085166608E+00  3.493552105942E+00  3.148027576291E+00  2.978766168200E+00
  2.811900359741E+00  2.647474005768E+00  2.485528967531E+00  2.326105063184E+00
  2.169240018883E+00  2.014969420338E+00  1.863326664697E+00  1.714342912631E+00
  1.568047040480E+00  1.424465592341E+00  1.283622731948E+00  1.145540194241E+00
  1.010237236485E+00  8.777305888415E-01  7.480344042834E-01  6.211602077733E-01
  4.971168446317E-01  3.759104280439E-01  2.575442856785E-01  1.420189054138E-01
  2.933188019903E-02 -8.052214789123E-02 -1.875515443112E-01 -2.917677392705E-01
 -3.931852853494E-01 -4.918219152703E-01 -5.876985995377E-01 -6.808396036010E-01
 -7.712725441287E-01 -8.590284439178E-01 -9.441417848834E-01 -1.026650558502E+00
 -1.106596312996E+00 -1.184024196460E+00 -1.258982995049E+00 -1.331525165241E+00
 -1.401706859106E+00 -1.469587941408E+00 -1.535231997279E+00 -1.598706329100E+00
 -1.660081941133E+00 -1.719433510363E+00 -1.776839341929E+00 -1.832381307421E+00
 -1.886144764309E+00 -1.938218454656E+00 -1.988694381276E+00 -2.037667659462E+00
 -2.085236342414E+00 -2.131501218535E+00 -2.176565578801E+00 -2.220534952539E+00
 -2.263516810019E+00 -2.305620230475E+00 -2.346955534349E+00 -2.387633878799E+00
 -2.427766815820E+00 -2.467465812634E+00 -2.506841734424E+00 -2.546004289891E+00
 -2.585061440595E+00 -2.624118775564E+00 -2.663278853195E+00 -2.702640513070E+00
 -2.742298160908E+00 -2.782341030520E+00 -2.822852427237E+00 -2.863908957955E+00
 -2.905579753514E+00 -2.947925689762E+00 -2.990998614140E+00 -3.034840585193E+00
 -3.079483132763E+00 -3.124946547015E+00 -3.171239204675E+00 -3.218356941029E+00
 -3.266282476265E+00 -3.314984904702E+00 -3.364419255263E+00 -3.414526131286E+00
 -3.465231437399E+00 -3.516446200723E+00 -3.568066493149E+00 -3.619973460855E+00
 -3.672033466629E+00 -3.724098349942E+00 -3.776005809143E+00 -3.827579909577E+00