<?xml version="1.0" encoding="UTF-8" ?>
<psml version="1.1" energy_unit="hartree" length_unit="bohr"
 uuid="1dffced0-53b5-11e8-4178-709eff9f7bfb"
 xmlns="http://esl.cecam.org/PSML/ns/1.1">
<provenance creator="ONCVPSP-3.3.0+psml-3.3.0-73 (fully-relativistic)"
 date="2018-05-09">
<annotation action="semilocal-pseudopotential-generation"
 action-cont="projectors-generation" />
<input-file name="oncvpsp-input">
<![CDATA[# atsym z nc nv iexc psfile
Au 79 10 4 -116133 upf
# n l f
1 0 2.0
2 0 2.0
2 1 6.0
3 0 2.0
3 1 6.0
3 2 10.0
4 0 2.0
4 1 6.0
4 2 10.0
4 3 14.0
5 0 2.0
5 1 6.0
5 2 10.0
6 0 1.0
# lmax
3
# l rc ep ncon nbas qcut
0 1.45 0.0 4 8 8.6
1 1.55 0.0 4 8 8.4
2 1.55 0.0 4 8 8.4
3 1.6  0.1 4 8 6.8
# lloc lpopt rc5 dvloc0
4 3 1.4 0.0
# l nproj debl
0 2 1.0
1 2 2.5
2 2 1.5
3 1 1.5
# icmod fcfact rcfact
3 5.0 1.37
# epsh1 epsh2 depsh
-14.0 12.0 0.02
# rlmax drl
5.0 0.01
 0
]]>
</input-file>
</provenance>
<pseudo-atom-spec atomic-label="Au" atomic-number="79" z-pseudo="19"
 flavor="Hamann&apos;s oncvpsp" relativity="dirac" spin-dft="no"
 core-corrections="yes">
<annotation pseudo-energy="-137.990398490" />
<exchange-correlation>
<annotation oncvpsp-xc-code="-116133" oncvpsp-xc-type="libxc-interface" />
<libxc-info number-of-functionals="2">
<functional name="Perdew, Burke &amp; Ernzerhof SOL (GGA)" type="exchange"
 id="116" />
<functional name="Perdew, Burke &amp; Ernzerhof SOL (GGA)" type="correlation"
 id="133" />
</libxc-info>
</exchange-correlation>
<valence-configuration total-valence-charge="19">
<shell n="5" l="s" occupation="2" />
<shell n="5" l="p" occupation="6" />
<shell n="5" l="d" occupation="10" />
<shell n="6" l="s" occupation="1" />
</valence-configuration>
</pseudo-atom-spec>
<grid npts="457">
<annotation type="sampled from oncvpsp log grid"
 recipe="r(i:1..N) = r1*exp(a*(i-1)) + r=0; resampled"
 recipe-cont="r1: scale; a: step" scale="0.632911392405E-05"
 step="0.119285708653E-01" delta="0.500000000000E-02" rmax="44.1367072872" />
<grid-data>
  0.000000000000E+00  5.039992789998E-03  1.006699007359E-02  1.510209039707E-02
  2.010802264298E-02  2.522313725547E-02  3.052722328344E-02  3.564790122404E-02
  4.113392158581E-02  4.634525124339E-02  5.159764181868E-02  5.676412574402E-02
  6.244793091137E-02  6.788622215170E-02  7.292303175120E-02  7.833354679692E-02
  8.414549431680E-02  8.931685626691E-02  9.480603659383E-02  1.006325675835E-01
  1.068171819253E-01  1.120374372382E-01  1.175128112974E-01  1.232557719939E-01
  1.292793965363E-01  1.355974012286E-01  1.422241727032E-01  1.474059295265E-01
  1.527764770685E-01  1.583426936788E-01  1.641117083111E-01  1.700909096533E-01
  1.762879555909E-01  1.827107830146E-01  1.893676179856E-01  1.962669862713E-01
  2.034177242645E-01  2.108289903007E-01  2.159192454425E-01  2.211323997045E-01
  2.264714203629E-01  2.319393463362E-01  2.375392899141E-01  2.432744385298E-01
  2.491480565737E-01  2.551634872516E-01  2.613241544878E-01  2.676335648737E-01
  2.740953096641E-01  2.807130668206E-01  2.874906031059E-01  2.944317762273E-01
  3.015405370325E-01  3.088209317586E-01  3.162771043350E-01  3.239132987421E-01
  3.317338614269E-01  3.397432437772E-01  3.479460046550E-01  3.563468129913E-01
  3.649504504442E-01  3.737618141197E-01  3.827859193598E-01  3.920279025969E-01
  4.014930242772E-01  4.111866718553E-01  4.211143628606E-01  4.261677352149E-01
  4.312817480375E-01  4.364571290139E-01  4.416946145621E-01  4.469949499368E-01
  4.523588893361E-01  4.577871960081E-01  4.632806423602E-01  4.688400100685E-01
  4.744660901894E-01  4.801596832716E-01  4.859215994709E-01  4.917526586645E-01
  4.976536905685E-01  5.036255348553E-01  5.096690412736E-01  5.157850697689E-01
  5.219744906061E-01  5.282381844934E-01  5.345770427073E-01  5.409919672198E-01
  5.474838708264E-01  5.540536772764E-01  5.607023214037E-01  5.674307492605E-01
  5.742399182516E-01  5.811307972707E-01  5.881043668379E-01  5.951616192400E-01
  6.023035586708E-01  6.095312013749E-01  6.168455757914E-01  6.242477227009E-01
  6.317386953733E-01  6.393195597178E-01  6.469913944344E-01  6.547552911676E-01
  6.626123546616E-01  6.705637029176E-01  6.786104673526E-01  6.867537929608E-01
  6.949948384763E-01  7.033347765380E-01  7.117747938565E-01  7.203160913828E-01
  7.289598844794E-01  7.377074030931E-01  7.465598919302E-01  7.555186106334E-01
  7.645848339610E-01  7.737598519685E-01  7.830449701922E-01  7.924415098345E-01
  8.019508079525E-01  8.115742176479E-01  8.213131082597E-01  8.311688655588E-01
  8.411428919455E-01  8.512366066489E-01  8.614514459286E-01  8.717888632798E-01
  8.822503296391E-01  8.928373335948E-01  9.035513815979E-01  9.143939981771E-01
  9.253667261553E-01  9.364711268691E-01  9.477087803915E-01  9.590812857562E-01
  9.705902611853E-01  9.822373443195E-01  9.940241924514E-01  1.005952482761E+00
  1.018023912554E+00  1.030240199505E+00  1.042603081899E+00  1.055114318881E+00
  1.067775690708E+00  1.080588998996E+00  1.093556066984E+00  1.106678739788E+00
  1.119958884666E+00  1.133398391282E+00  1.146999171977E+00  1.160763162041E+00
  1.174692319985E+00  1.188788627825E+00  1.203054091359E+00  1.217490740455E+00
  1.232100629341E+00  1.246885836893E+00  1.261848466936E+00  1.276990648539E+00
  1.292314536321E+00  1.307822310757E+00  1.323516178486E+00  1.339398372628E+00
  1.355471153100E+00  1.371736806937E+00  1.388197648620E+00  1.404856020403E+00
  1.421714292648E+00  1.438774864160E+00  1.456040162530E+00  1.473512644480E+00
  1.491194796214E+00  1.509089133769E+00  1.527198203374E+00  1.545524581814E+00
  1.564070876796E+00  1.582839727318E+00  1.601833804046E+00  1.621055809694E+00
  1.640508479410E+00  1.660194581163E+00  1.680116916137E+00  1.700278319131E+00
  1.720681658961E+00  1.741329838868E+00  1.762225796934E+00  1.783372506498E+00
  1.804772976576E+00  1.826430252295E+00  1.848347415322E+00  1.870527584306E+00
  1.892973915318E+00  1.915689602301E+00  1.938677877529E+00  1.961942012059E+00
  1.985485316204E+00  2.009311139999E+00  2.033422873679E+00  2.057823948163E+00
  2.082517835541E+00  2.107508049567E+00  2.132798146162E+00  2.158391723916E+00
  2.184292424603E+00  2.210503933698E+00  2.237029980903E+00  2.263874340673E+00
  2.291040832761E+00  2.318533322755E+00  2.346355722628E+00  2.374511991299E+00
  2.403006135195E+00  2.431842208817E+00  2.461024315323E+00  2.490556607107E+00
  2.520443286392E+00  2.550688605829E+00  2.581296869099E+00  2.612272431528E+00
  2.643619700706E+00  2.675343137115E+00  2.707447254760E+00  2.739936621817E+00
  2.772815861279E+00  2.806089651614E+00  2.839762727434E+00  2.873839880163E+00
  2.908325958725E+00  2.943225870230E+00  2.978544580672E+00  3.014287115640E+00
  3.050458561028E+00  3.087064063760E+00  3.124108832526E+00  3.161598138516E+00
  3.199537316178E+00  3.237931763972E+00  3.276786945140E+00  3.316108388482E+00
  3.355901689143E+00  3.396172509413E+00  3.436926579526E+00  3.478169698480E+00
  3.519907734862E+00  3.562146627680E+00  3.604892387213E+00  3.648151095859E+00
  3.691928909009E+00  3.736232055918E+00  3.781066840589E+00  3.826439642676E+00
  3.872356918388E+00  3.918825201408E+00  3.965851103825E+00  4.013441317071E+00
  4.061602612876E+00  4.110341844231E+00  4.159665946361E+00  4.209581937718E+00
  4.260096920970E+00  4.311218084022E+00  4.362952701030E+00  4.415308133443E+00
  4.468291831044E+00  4.521911333016E+00  4.576174269013E+00  4.631088360241E+00
  4.686661420564E+00  4.742901357610E+00  4.799816173902E+00  4.857413967988E+00
  4.915702935604E+00  4.974691370832E+00  5.034387667282E+00  5.094800319289E+00
  5.155937923120E+00  5.217809178198E+00  5.280422888336E+00  5.343787962996E+00
  5.407913418552E+00  5.472808379575E+00  5.538482080130E+00  5.604943865091E+00
  5.672203191472E+00  5.740269629770E+00  5.809152865327E+00  5.878862699711E+00
  5.949409052108E+00  6.020801960733E+00  6.093051584262E+00  6.166168203273E+00
  6.240162221712E+00  6.315044168373E+00  6.390824698393E+00  6.467514594774E+00
  6.545124769911E+00  6.623666267150E+00  6.703150262356E+00  6.783588065504E+00
  6.864991122290E+00  6.947371015758E+00  7.030739467947E+00  7.115108341562E+00
  7.200489641661E+00  7.286895517361E+00  7.374338263569E+00  7.462830322732E+00
  7.552384286605E+00  7.643012898044E+00  7.734729052821E+00  7.827545801455E+00
  7.921476351072E+00  8.016534067285E+00  8.112732476092E+00  8.210085265805E+00
  8.308606288995E+00  8.408309564463E+00  8.509209279237E+00  8.611319790587E+00
  8.714655628075E+00  8.819231495611E+00  8.925062273559E+00  9.032163020841E+00
  9.140548977092E+00  9.250235564817E+00  9.361238391594E+00  9.473573252294E+00
  9.587256131321E+00  9.702303204897E+00  9.818730843356E+00  9.936555613476E+00
  1.005579428084E+01  1.017646381221E+01  1.029858137795E+01  1.042216435449E+01
  1.054723032674E+01  1.067379709066E+01  1.080188265575E+01  1.093150524762E+01
  1.106268331059E+01  1.119543551032E+01  1.132978073644E+01  1.146573810528E+01
  1.160332696254E+01  1.174256688610E+01  1.188347768873E+01  1.202607942099E+01
  1.217039237404E+01  1.231643708253E+01  1.246423432752E+01  1.261380513945E+01
  1.276517080113E+01  1.291835285074E+01  1.307337308495E+01  1.323025356197E+01
  1.338901660471E+01  1.354968480397E+01  1.371228102162E+01  1.387682839388E+01
  1.404335033460E+01  1.421187053862E+01  1.438241298508E+01  1.455500194090E+01
  1.472966196419E+01  1.490641790776E+01  1.508529492266E+01  1.526631846173E+01
  1.544951428327E+01  1.563490845467E+01  1.582252735613E+01  1.601239768440E+01
  1.620454645661E+01  1.639900101409E+01  1.659578902626E+01  1.679493849457E+01
  1.699647775651E+01  1.720043548959E+01  1.740684071546E+01  1.761572280405E+01
  1.782711147770E+01  1.804103681543E+01  1.825752925721E+01  1.847661960830E+01
  1.869833904360E+01  1.892271911212E+01  1.914979174147E+01  1.937958924237E+01
  1.961214431328E+01  1.984749004503E+01  2.008565992558E+01  2.032668784468E+01
  2.057060809882E+01  2.081745539600E+01  2.106726486076E+01  2.132007203909E+01
  2.157591290355E+01  2.183482385840E+01  2.209684174470E+01  2.236200384563E+01
  2.263034789178E+01  2.290191206648E+01  2.317673501128E+01  2.345485583142E+01
  2.373631410139E+01  2.402114987061E+01  2.430940366906E+01  2.460111651309E+01
  2.489632991124E+01  2.519508587018E+01  2.549742690062E+01  2.580339602343E+01
  2.611303677571E+01  2.642639321702E+01  2.674350993562E+01  2.706443205485E+01
  2.738920523951E+01  2.771787570238E+01  2.805049021081E+01  2.838709609334E+01
  2.872774124646E+01  2.907247414142E+01  2.942134383111E+01  2.977439995709E+01
  3.013169275657E+01  3.049327306965E+01  3.085919234649E+01  3.122950265464E+01
  3.160425668650E+01  3.198350776674E+01  3.236730985994E+01  3.275571757826E+01
  3.314878618920E+01  3.354657162347E+01  3.394913048295E+01  3.435652004875E+01
  3.476879828933E+01  3.518602386880E+01  3.560825615523E+01  3.603555522909E+01
  3.646798189184E+01  3.690559767454E+01  3.734846484664E+01  3.779664642480E+01
  3.825020618189E+01  3.870920865608E+01  3.917371915995E+01  3.964380378987E+01
  4.011952943535E+01  4.060096378857E+01  4.108817535403E+01  4.158123345828E+01
  4.208020825978E+01  4.258517075890E+01  4.309619280801E+01  4.361334712170E+01
  4.413670728716E+01
</grid-data>
</grid>
<valence-charge total-charge="19" is-unscreening-charge="yes"
 rescaled-to-z-pseudo="no">
<radfunc>
<data npts="457">
  1.883897126063E+00  1.885647926220E+00  1.890882080390E+00  1.899615884150E+00
  1.911761852730E+00  1.927737804508E+00  1.948107657663E+00  1.971444868569E+00
  2.000446206165E+00  2.031823109707E+00  2.067216648098E+00  2.105718572221E+00
  2.152293997450E+00  2.200987896746E+00  2.249683186895E+00  2.305836421198E+00
  2.370582471930E+00  2.432037143881E+00  2.501218636500E+00  2.579088335188E+00
  2.666724013681E+00  2.744670577438E+00  2.830320699307E+00  2.924421526253E+00
  3.027789005482E+00  3.141313225840E+00  3.265963884377E+00  3.367384778444E+00
  3.476133919073E+00  3.592719326034E+00  3.717680024490E+00  3.851587064809E+00
  3.995044371441E+00  4.148689361667E+00  4.313193262374E+00  4.489261038264E+00
  4.677630827612E+00  4.879072761759E+00  5.021023681396E+00  5.169383467206E+00
  5.324400958225E+00  5.486329271159E+00  5.655425061275E+00  5.831947639437E+00
  6.016157927588E+00  6.208317233402E+00  6.408685823205E+00  6.617521270658E+00
  6.835076557067E+00  7.061597897618E+00  7.297322266406E+00  7.542474591813E+00
  7.797264592764E+00  8.061883225660E+00  8.336498711531E+00  8.621252113241E+00
  8.916252433587E+00  9.221571207043E+00  9.537236560864E+00  9.863226725569E+00
  1.019946298061E+01  1.054580202868E+01  1.090202780183E+01  1.126784271458E+01
  1.164285839419E+01  1.202658593578E+01  1.241842575121E+01  1.261716755482E+01
  1.281765710520E+01  1.301978363266E+01  1.322342746047E+01  1.342845967263E+01
  1.363474178565E+01  1.384212542609E+01  1.405045201604E+01  1.425955246868E+01
  1.446924689635E+01  1.467934433358E+01  1.488964247805E+01  1.509992745220E+01
  1.530997358882E+01  1.551954324375E+01  1.572838663934E+01  1.593624174230E+01
  1.614283417977E+01  1.634787719758E+01  1.655107166501E+01  1.675210613007E+01
  1.695065692996E+01  1.714638836102E+01  1.733895291273E+01  1.752799157031E+01
  1.771313419053E+01  1.789399995511E+01  1.807019790621E+01  1.824132756812E+01
  1.840697965938E+01  1.856673689884E+01  1.872017490938E+01  1.886686322206E+01
  1.900636638347E+01  1.913824516814E+01  1.926205789746E+01  1.937736186570E+01
  1.948371487300E+01  1.958067686428E+01  1.966781167194E+01  1.974468885933E+01
  1.981088566073E+01  1.986598901217E+01  1.990959766649E+01  1.994132438435E+01
  1.996079819157E+01  1.996766669178E+01  1.996159842178E+01  1.994228523559E+01
  1.990944470156E+01  1.986282249557E+01  1.980219477198E+01  1.972737049239E+01
  1.963819369154E+01  1.953454565805E+01  1.941634700740E+01  1.928355962336E+01
  1.913618844383E+01  1.897428306706E+01  1.879793915386E+01  1.860729960230E+01
  1.840255547197E+01  1.818394663586E+01  1.795176213990E+01  1.770634025146E+01
  1.744806818116E+01  1.717738146428E+01  1.689476299175E+01  1.660074168358E+01
  1.629589080180E+01  1.598082590351E+01  1.565620243907E+01  1.532271300488E+01
  1.498108426444E+01  1.463207355602E+01  1.427646520948E+01  1.391506659920E+01
  1.354870396390E+01  1.317821802796E+01  1.280445946184E+01  1.242828422232E+01
  1.205054881521E+01  1.167210552494E+01  1.129379765640E+01  1.091645483461E+01
  1.054088840756E+01  1.016788699638E+01  9.798212235293E+00  9.432594741520E+00
  9.071730352416E+00  8.716276663641E+00  8.366849898462E+00  8.024022134063E+00
  7.688318906352E+00  7.360217210172E+00  7.040143907110E+00  6.728474548408E+00
  6.425532615759E+00  6.131589178221E+00  5.846862958933E+00  5.571520801107E+00
  5.305678518636E+00  5.049402113561E+00  4.802709341313E+00  4.565571857928E+00
  4.337918597348E+00  4.119639726125E+00  3.910588500149E+00  3.710583424700E+00
  3.519410523825E+00  3.336827222520E+00  3.162572089578E+00  2.996377843027E+00
  2.837973987906E+00  2.687087632201E+00  2.543445310719E+00  2.406774248786E+00
  2.276803546836E+00  2.153265226340E+00  2.035895149086E+00  1.924433817214E+00
  1.818627061084E+00  1.718226623039E+00  1.622990644017E+00  1.532684060410E+00
  1.447078919139E+00  1.365954617349E+00  1.289098074037E+00  1.216303840197E+00
  1.147374153872E+00  1.082118946183E+00  1.020355804070E+00  9.619098951588E-01
  9.066138597821E-01  8.543076748728E-01  8.048384940558E-01  7.580604679437E-01
  7.138345482881E-01  6.720282793119E-01  6.325155792287E-01  5.951765146480E-01
  5.598970702778E-01  5.265689160588E-01  4.950891736090E-01  4.653601836128E-01
  4.372892755701E-01  4.107885411075E-01  3.857746118707E-01  3.621684428378E-01
  3.398951017384E-01  3.188835651231E-01  2.990665214949E-01  2.803801818072E-01
  2.627640975279E-01  2.461609863827E-01  2.305165658146E-01  2.157793941297E-01
  2.019007192439E-01  1.888343348975E-01  1.765364441648E-01  1.649655300573E-01
  1.540822329895E-01  1.438492348606E-01  1.342311494908E-01  1.251944191417E-01
  1.167072168433E-01  1.087393542535E-01  1.012621947705E-01  9.424857162941E-02
  8.767271071443E-02  8.151015782985E-02  7.573771017916E-02  7.033335181284E-02
  6.527619281482E-02  6.054641200868E-02  5.612520297473E-02  5.199472317822E-02
  4.813804602943E-02  4.453911567743E-02  4.118270438809E-02  3.805437233411E-02
  3.514042964541E-02  3.242790057296E-02  2.990448962623E-02  2.755854955006E-02
  2.537905101352E-02  2.335555388862E-02  2.147818000307E-02  1.973758725714E-02
  1.812494500091E-02  1.663191057475E-02  1.525060692238E-02  1.397360119300E-02
  1.279388425598E-02  1.170485105888E-02  1.070028176670E-02  9.774323627502E-03
  8.921473516519E-03  8.136561117180E-03  7.414732704102E-03  6.751435498458E-03
  6.142402571441E-03  5.583638276050E-03  5.071404191303E-03  4.602205566304E-03
  4.172778254216E-03  3.780076128273E-03  3.421258973456E-03  3.093680848501E-03
  2.794878913427E-03  2.522562717991E-03  2.274603946280E-03  2.049026612275E-03
  1.843997700555E-03  1.657818245567E-03  1.488914841956E-03  1.335831577559E-03
  1.197222379651E-03  1.071843764136E-03  9.585479764515E-04  8.562765121432E-04
  7.640540043607E-04  6.809824648884E-04  6.062358648490E-04  5.390550408567E-04
  4.787429121783E-04  4.246599943383E-04  3.762201946431E-04  3.328868752474E-04
  2.941691696253E-04  2.596185386456E-04  2.288255528706E-04  2.014168881775E-04
  1.770525223260E-04  1.554231206572E-04  1.362475996866E-04  1.192708579407E-04
  1.042616639673E-04  9.101069202037E-05  7.932869646802E-05  6.904481649691E-05
  6.000500318142E-05  5.207056145009E-05  4.511679991457E-05  3.903178192756E-05
  3.371517160791E-05  2.907716891364E-05  2.503752816161E-05  2.152465468592E-05
  1.847477460108E-05  1.583117289063E-05  1.354349528218E-05  1.156710959573E-05
  9.862522467520E-06  8.394847557056E-06  7.133321542314E-06  6.050864398600E-06
  5.123680640902E-06  4.330898388534E-06  3.654243284869E-06  3.077744474336E-06
  2.587470003568E-06  2.171289173818E-06  1.818659527307E-06  1.520436300888E-06
  1.268702326184E-06  1.056616495925E-06  8.782790513494E-07  7.286120751517E-07
  6.032536982416E-07  4.984646465448E-07  4.110458659936E-07  3.382660697585E-07
  2.777981515902E-07  2.276635029278E-07  1.861833592221E-07  1.519363828507E-07
  1.237217661685E-07  1.005272088333E-07  8.150118874262E-08  6.592900594151E-08
  5.321213392652E-08  4.285046314025E-08  3.442706735946E-08  2.759516540062E-08
  2.206698835572E-08  1.760429669287E-08  1.401032226963E-08  1.112293786770E-08
  8.808881510870E-09  6.958884815091E-09  5.483574166406E-09  4.310030848686E-09
  3.378911552989E-09  2.642044188088E-09  2.060425757846E-09  1.602559443922E-09
  1.243077087445E-09  9.616011441970E-10  7.418070258337E-10  5.706526547731E-10
  4.377471614293E-10  3.348350380523E-10  2.553758222921E-10  1.942025953328E-10
  1.472453151651E-10  1.113073285709E-10  8.388537169816E-11  6.302502826949E-11
  4.720501016932E-11  3.524479525167E-11  2.623113266098E-11  1.936743752912E-11
  1.432424698719E-11  1.055919816768E-11  7.167569892260E-12  5.255281924893E-12
  3.839937116982E-12  2.796008555796E-12  2.028715847342E-12  1.466743293429E-12
  1.056619822126E-12  7.583968230366E-13  5.423360629661E-13  3.863808303526E-13
  2.742321744145E-13  1.938908829754E-13  1.365565910883E-13  9.579969944017E-14
  6.694088994278E-14  4.658800078291E-14  3.229171196915E-14  2.229057946955E-14
  1.532299177217E-14  1.048904781226E-14  7.149521041120E-15  4.852259852685E-15
  3.278800034027E-15  2.205803774435E-15  1.477327876665E-15  9.849670702165E-16
  6.536989320116E-16  4.318383857217E-16  2.839409197537E-16  1.858119213546E-16
  1.210133520347E-16  7.842998191583E-17  5.058185151123E-17  3.245977335451E-17
  2.072566417351E-17  1.316610727436E-17  8.320811984370E-18  5.231262615569E-18
  3.271542848363E-18  2.035056317555E-18  1.259070653308E-18  7.747211338912E-19
  4.740605107840E-19  2.884604839055E-19  1.745314881933E-19  1.049945030207E-19
  6.279638834854E-20  3.733771729856E-20  2.206861766299E-20  1.296539205095E-20
  7.570905055606E-21  4.393691333312E-21  2.533954382186E-21  0.000000000000E+00
  0.000000000000E+00  0.000000000000E+00  0.000000000000E+00  0.000000000000E+00
  0.000000000000E+00  0.000000000000E+00  0.000000000000E+00  0.000000000000E+00
  0.000000000000E+00  0.000000000000E+00  0.000000000000E+00  0.000000000000E+00
  0.000000000000E+00  0.000000000000E+00  0.000000000000E+00  0.000000000000E+00
  0.000000000000E+00  0.000000000000E+00  0.000000000000E+00  0.000000000000E+00
  0.000000000000E+00
</data>
</radfunc>
</valence-charge>
<pseudocore-charge matching-radius="0.792441509834"
 number-of-continuous-derivatives="4">
<annotation model-charge-form="Teter function with specified parameters" />
<radfunc>
<data npts="275">
  9.921194608781E+01  9.920519072049E+01  9.918499681669E+01  9.915130698081E+01
  9.910446765451E+01  9.904288080800E+01  9.896439224182E+01  9.887452023626E+01
  9.876291010087E+01  9.864225025156E+01  9.850625917482E+01  9.835846211237E+01
  9.817986305830E+01  9.799336070305E+01  9.780707615276E+01  9.759253549018E+01
  9.734552577912E+01  9.711142636449E+01  9.684830004615E+01  9.655263760140E+01
  9.622052973053E+01  9.592569638282E+01  9.560231850788E+01  9.524773991350E+01
  9.485907976423E+01  9.443321840191E+01  9.396678337326E+01  9.358815210377E+01
  9.318301966908E+01  9.274965771951E+01  9.228624463882E+01  9.179086362267E+01
  9.126150129538E+01  9.069604698964E+01  9.009229283179E+01  8.944793479469E+01
  8.876057490144E+01  8.802772478615E+01  8.751261809064E+01  8.697536908927E+01
  8.641518121383E+01  8.583124489811E+01  8.522273915170E+01  8.458883337682E+01
  8.392868944890E+01  8.324146408288E+01  8.252631150788E+01  8.178238647368E+01
  8.100884761300E+01  8.020486118406E+01  7.936960521797E+01  7.850227409558E+01
  7.760208357785E+01  7.666827631306E+01  7.570012784283E+01  7.469695312726E+01
  7.365811360687E+01  7.258302481595E+01  7.147116455799E+01  7.032208164883E+01
  6.913540522749E+01  6.791085462719E+01  6.664824979128E+01  6.534752220843E+01
  6.400872633102E+01  6.263205142707E+01  6.121783380243E+01  6.049679484583E+01
  5.976656931299E+01  5.902724620032E+01  5.827892606929E+01  5.752172144555E+01
  5.675575721574E+01  5.598117102094E+01  5.519811364520E+01  5.440674939762E+01
  5.360725648651E+01  5.279982738376E+01  5.198466917769E+01  5.116200391237E+01
  5.033206891152E+01  4.949511708464E+01  4.865141721332E+01  4.780125421518E+01
  4.694492938319E+01  4.608276059757E+01  4.521508250779E+01  4.434224668185E+01
  4.346462171997E+01  4.258259332983E+01  4.169656436026E+01  4.080695479050E+01
  3.991420167171E+01  3.901875901780E+01  3.812109764220E+01  3.722170493763E+01
  3.632108459551E+01  3.541975626201E+01  3.451825512758E+01  3.361713144713E+01
  3.271694998768E+01  3.181828940111E+01  3.092174151905E+01  3.002791056784E+01
  2.913741230111E+01  2.825087304836E+01  2.736892867774E+01  2.649222347193E+01
  2.562140891622E+01  2.475714239839E+01  2.390008582041E+01  2.305090412259E+01
  2.221026372137E+01  2.137883086239E+01  2.055726989136E+01  1.974624144583E+01
  1.894640057170E+01  1.815839476914E+01  1.738286197341E+01  1.662042847687E+01
  1.587170679936E+01  1.513729351523E+01  1.441776704578E+01  1.371368542740E+01
  1.302558406608E+01  1.235397349024E+01  1.169933711463E+01  1.106212902883E+01
  1.044277182497E+01  9.841654479773E+00  9.259130306904E+00  8.695514996234E+00
  8.151084757068E+00  7.626074582837E+00  7.120676655004E+00  6.635038904058E+00
  6.169263745377E+00  5.723407007538E+00  5.297477070149E+00  4.891434227666E+00
  4.505190294695E+00  4.138608467173E+00  3.791503452405E+00  3.463641879266E+00
  3.154742997970E+00  2.864479676578E+00  2.592479699020E+00  2.338327366650E+00
  2.101565402459E+00  1.881697153891E+00  1.678189086887E+00  1.490473560255E+00
  1.317951865889E+00  1.159997516626E+00  1.015959759841E+00  8.851672912113E-01
  7.669321394869E-01  6.605536897020E-01  5.653228090934E-01  4.805260371330E-01
  4.054497986156E-01  3.393845967454E-01  2.816291417074E-01  2.314943693678E-01
  1.883073045820E-01  1.514147241607E-01  1.201865758946E-01  9.401911220647E-02
  7.233769999535E-02  5.459927206602E-02  4.029439017757E-02  2.894889514992E-02
  2.012512557902E-02  1.342269343591E-02  8.478812052124E-03  4.968179588060E-03
  2.602428884895E-03  1.129162439354E-03  3.305989225250E-04  2.186498738453E-05
  4.897286712707E-05  2.865302512233E-04  6.352339395890E-04  1.019202634126E-03
  1.383206771394E-03  1.689854401909E-03  1.916791691220E-03  2.053974612112E-03
  2.101064824330E-03  2.064997662527E-03  1.957763697034E-03  1.794437676281E-03
  1.591480039872E-03  1.365326893113E-03  1.131274683472E-03  9.026561730825E-04
  6.902950302372E-04  5.022178371598E-04  3.435948826650E-04  2.168750905521E-04
  1.220760859892E-04  5.718790831473E-05  1.864833836786E-05  1.849223184508E-06
  1.636449481305E-06  1.277113636214E-05  3.032588829728E-05  4.999719107453E-05
  6.832280387509E-05  8.280082182057E-05  9.191447158961E-05  9.507320149589E-05
  9.248584044823E-05  8.498522209931E-05  7.382551242062E-05  6.047348661244E-05
  4.641326285217E-05  3.298074297818E-05  2.123958389300E-05  1.190537359581E-05
  5.319314892082E-06  1.467642353896E-06  3.869131965872E-08  5.063943190362E-07
  2.227267305452E-06  4.537777229223E-06  6.840296356263E-06  8.668425237150E-06
  9.725942416417E-06  9.897552649017E-06  9.233450577520E-06  7.913006919734E-06
  6.195215078725E-06  4.364640438858E-06  2.681399613414E-06  1.342258390935E-06
  4.575468479595E-07  4.565622055113E-08  0.000000000000E+00  0.000000000000E+00
  0.000000000000E+00  0.000000000000E+00  0.000000000000E+00  0.000000000000E+00
  0.000000000000E+00  0.000000000000E+00  0.000000000000E+00  0.000000000000E+00
  0.000000000000E+00  0.000000000000E+00  0.000000000000E+00  0.000000000000E+00
  0.000000000000E+00  0.000000000000E+00  0.000000000000E+00  0.000000000000E+00
  0.000000000000E+00  0.000000000000E+00  0.000000000000E+00  0.000000000000E+00
  0.000000000000E+00  0.000000000000E+00  0.000000000000E+00  0.000000000000E+00
  0.000000000000E+00  0.000000000000E+00  0.000000000000E+00  0.000000000000E+00
  0.000000000000E+00  0.000000000000E+00  0.000000000000E+00  0.000000000000E+00
  0.000000000000E+00  0.000000000000E+00  0.000000000000E+00
</data>
</radfunc>
</pseudocore-charge>
<semilocal-potentials set="lj">
<slps n="5" l="s" j="0.5" rc="1.45604016253" eref="-3.97538532995">
<radfunc>
<data npts="275">
 -6.077145033880E+00 -6.080848133874E+00 -6.091912247764E+00 -6.110352154995E+00
 -6.135950899085E+00 -6.169541599496E+00 -6.212239422390E+00 -6.260977132567E+00
 -6.321277624308E+00 -6.386187617819E+00 -6.458998901470E+00 -6.537718071624E+00
 -6.632273268785E+00 -6.730353249828E+00 -6.827652576659E+00 -6.938894016710E+00
 -7.065900528339E+00 -7.185223951558E+00 -7.318144282451E+00 -7.466007380319E+00
 -7.630241113011E+00 -7.774421717607E+00 -7.930836658189E+00 -8.100302596834E+00
 -8.283648153749E+00 -8.481704885330E+00 -8.695296350479E+00 -8.866168615540E+00
 -9.046557356629E+00 -9.236773124820E+00 -9.437106545151E+00 -9.647823453189E+00
 -9.869159652395E+00 -1.010131531908E+01 -1.034444909360E+01 -1.059867190927E+01
 -1.086404062386E+01 -1.114055153237E+01 -1.133105024744E+01 -1.152643223951E+01
 -1.172664329086E+01 -1.193161302435E+01 -1.214125412952E+01 -1.235546162778E+01
 -1.257411218426E+01 -1.279706347411E+01 -1.302415361038E+01 -1.325520064078E+01
 -1.349000211974E+01 -1.372833476180E+01 -1.396995418138E+01 -1.421459472336E+01
 -1.446196938749E+01 -1.471176984873E+01 -1.496366657428E+01 -1.521730903660E+01
 -1.547232602049E+01 -1.572832602077E+01 -1.598489772553E+01 -1.624161057899E+01
 -1.649801541626E+01 -1.675364516131E+01 -1.700801557879E+01 -1.726062606903E+01
 -1.751096049550E+01 -1.775848803359E+01 -1.800266402976E+01 -1.812332142556E+01
 -1.824293086038E+01 -1.836142074397E+01 -1.847871878062E+01 -1.859475199455E+01
 -1.870944675481E+01 -1.882272879979E+01 -1.893452326115E+01 -1.904475468722E+01
 -1.915334706592E+01 -1.926022384708E+01 -1.936530796429E+01 -1.946852185627E+01
 -1.956978748778E+01 -1.966902637013E+01 -1.976615958143E+01 -1.986110778653E+01
 -1.995379125689E+01 -2.004412989044E+01 -2.013204323148E+01 -2.021745049093E+01
 -2.030027056694E+01 -2.038042206611E+01 -2.045782332557E+01 -2.053239243592E+01
 -2.060404726560E+01 -2.067270548651E+01 -2.073828460158E+01 -2.080070197413E+01
 -2.085987485965E+01 -2.091572044012E+01 -2.096815586120E+01 -2.101709827259E+01
 -2.106246487203E+01 -2.110417295307E+01 -2.114213995707E+01 -2.117628352982E+01
 -2.120652158301E+01 -2.123277236101E+01 -2.125495451330E+01 -2.127298717280E+01
 -2.128679004065E+01 -2.129628347756E+01 -2.130138860233E+01 -2.130202739758E+01
 -2.129812282329E+01 -2.128959893832E+01 -2.127638103027E+01 -2.125839575401E+01
 -2.123557127915E+01 -2.120783744680E+01 -2.117512593595E+01 -2.113737043975E+01
 -2.109450685215E+01 -2.104647346514E+01 -2.099321117721E+01 -2.093466371337E+01
 -2.087077785750E+01 -2.080150369748E+01 -2.072679488427E+01 -2.064660890559E+01
 -2.056090737571E+01 -2.046965634269E+01 -2.037282661483E+01 -2.027039410862E+01
 -2.016234022062E+01 -2.004865222652E+01 -1.992932371113E+01 -1.980435503370E+01
 -1.967375383393E+01 -1.953753558508E+01 -1.939572420154E+01 -1.924835270977E+01
 -1.909546399282E+01 -1.893711162076E+01 -1.877336078080E+01 -1.860428932357E+01
 -1.842998894435E+01 -1.825056652065E+01 -1.806614563076E+01 -1.787686828106E+01
 -1.768289687301E+01 -1.748441644460E+01 -1.728163722411E+01 -1.707479753750E+01
 -1.686416711316E+01 -1.665005083011E+01 -1.643279295593E+01 -1.621278192012E+01
 -1.599045566473E+01 -1.576630760763E+01 -1.554089324264E+01 -1.531483738475E+01
 -1.508884204612E+01 -1.486369489834E+01 -1.464027823805E+01 -1.441957832531E+01