P     ONCVPSP-3.3.0  r_core=   1.40954   1.60717   1.81079
15.0000     13.0000      180430    zatom,zion,pspd
8 -116133   2     4   600     0    pspcod,pspxc,lmax,lloc,mmax,r2well
5.99000000  0.00000000  0.00000000    rchrg fchrg qchrg
2     2     2     0    nproj
3     1           extension_switch
3     3     0    nprojso
0                        -5.9480180582072D+00 -1.0843031314066D+00
1  0.0000000000000D+00 -7.3750561213615D-11  6.9752237319420D-10
2  1.0000000000000D-02  7.7037578142217D-02 -6.4452702444597D-02
3  2.0000000000000D-02  1.5389015698973D-01 -1.2854965531440D-01
4  3.0000000000000D-02  2.3037337628510D-01 -1.9193716543013D-01
5  4.0000000000000D-02  3.0630415094117D-01 -2.5426563616394D-01
6  5.0000000000000D-02  3.8150130138472D-01 -3.1519157529668D-01
7  6.0000000000000D-02  4.5578617526288D-01 -3.7437955487595D-01
8  7.0000000000000D-02  5.2898325772090D-01 -4.3150410790592D-01
9  8.0000000000000D-02  6.0092076753308D-01 -4.8625154739760D-01
10  9.0000000000000D-02  6.7143123646007D-01 -5.3832169416174D-01
11  1.0000000000000D-01  7.4035206931216D-01 -5.8742950072533D-01
12  1.1000000000000D-01  8.0752608232055D-01 -6.3330655988200D-01
13  1.2000000000000D-01  8.7280201755447D-01 -6.7570248763223D-01
14  1.3000000000000D-01  9.3603503127049D-01 -7.1438617161328D-01
15  1.4000000000000D-01  9.9708715424011D-01 -7.4914687754427D-01
16  1.5000000000000D-01  1.0558277222710D+00 -7.7979520769825D-01
17  1.6000000000000D-01  1.1121337753146D+00 -8.0616390694214D-01
18  1.7000000000000D-01  1.1658904237371D+00 -8.2810851343557D-01
19  1.8000000000000D-01  1.2169911805185D+00 -8.4550785263119D-01
20  1.9000000000000D-01  1.2653382583373D+00 -8.5826437475171D-01
21  2.0000000000000D-01  1.3108428306910D+00 -8.6630433741238D-01
22  2.1000000000000D-01  1.3534252563963D+00 -8.6957783649391D-01
23  2.2000000000000D-01  1.3930152670035D+00 -8.6805868973073D-01
24  2.3000000000000D-01  1.4295521168489D+00 -8.6174417874751D-01
25  2.4000000000000D-01  1.4629846956530D+00 -8.5065465643678D-01
26  2.5000000000000D-01  1.4932716037498D+00 -8.3483302760979D-01
27  2.6000000000000D-01  1.5203811902032D+00 -8.1434411175928D-01
28  2.7000000000000D-01  1.5442915542324D+00 -7.8927389753800D-01
29  2.8000000000000D-01  1.5649905105189D+00 -7.5972869917213D-01
30  2.9000000000000D-01  1.5824755191153D+00 -7.2583422549196D-01
31  3.0000000000000D-01  1.5967535808105D+00 -6.8773457256704D-01
32  3.1000000000000D-01  1.6078410989282D+00 -6.4559115108415D-01
33  3.2000000000000D-01  1.6157637086522D+00 -5.9958155960170D-01
34  3.3000000000000D-01  1.6205560750717D+00 -5.4989841466205D-01
35  3.4000000000000D-01  1.6222616612318D+00 -4.9674814844806D-01
36  3.5000000000000D-01  1.6209324675585D+00 -4.4034978424261D-01
37  3.6000000000000D-01  1.6166287440923D+00 -3.8093369940029D-01
38  3.7000000000000D-01  1.6094186770310D+00 -3.1874038488218D-01
39  3.8000000000000D-01  1.5993780511300D+00 -2.5401920965101D-01
40  3.9000000000000D-01  1.5865898895512D+00 -1.8702719739321D-01
41  4.0000000000000D-01  1.5711440727879D+00 -1.1802782213950D-01
42  4.1000000000000D-01  1.5531369383181D+00 -4.7289828418312D-02
43  4.2000000000000D-01  1.5326708626601D+00  2.4913919388415D-02
44  4.3000000000000D-01  1.5098538275192D+00  9.8307554790132D-02
45  4.4000000000000D-01  1.4847989717253D+00  1.7261329129846D-01
46  4.5000000000000D-01  1.4576241306645D+00  2.4755246710382D-01
47  4.6000000000000D-01  1.4284513649144D+00  3.2284655140742D-01
48  4.7000000000000D-01  1.3974064797899D+00  3.9821811232696D-01
49  4.8000000000000D-01  1.3646185375063D+00  4.7339174704776D-01
50  4.9000000000000D-01  1.3302193636629D+00  5.4809497555523D-01
51  5.0000000000000D-01  1.2943430497463D+00  6.2205909984874D-01
52  5.1000000000000D-01  1.2571254533496D+00  6.9502003099131D-01
53  5.2000000000000D-01  1.2187036977967D+00  7.6671908668658D-01
54  5.3000000000000D-01  1.1792156728585D+00  8.3690376228891D-01
55  5.4000000000000D-01  1.1387995382424D+00  9.0532847824237D-01
56  5.5000000000000D-01  1.0975932315300D+00  9.7175530690764D-01
57  5.6000000000000D-01  1.0557339822349D+00  1.0359546815767D+00
58  5.7000000000000D-01  1.0133578336441D+00  1.0977060901953D+00
59  5.8000000000000D-01  9.7059917409989D-01  1.1567987559224D+00
60  5.9000000000000D-01  9.2759027936967D-01  1.2130323061606D+00
61  6.0000000000000D-01  8.8446086773774D-01  1.2662174311033D+00
62  6.1000000000000D-01  8.4133766943954D-01  1.3161765321779D+00
63  6.2000000000000D-01  7.9834401203751D-01  1.3627443600337D+00
64  6.3000000000000D-01  7.5559942331389D-01  1.4057686409390D+00
65  6.4000000000000D-01  7.1321925322506D-01  1.4451106896442D+00
66  6.5000000000000D-01  6.7131431642441D-01  1.4806460059409D+00
67  6.6000000000000D-01  6.2999055681584D-01  1.5122648513251D+00
68  6.7000000000000D-01  5.8934873554614D-01  1.5398728013841D+00
69  6.8000000000000D-01  5.4948414378183D-01  1.5633912687696D+00
70  6.9000000000000D-01  5.1048634154256D-01  1.5827579909352D+00
71  7.0000000000000D-01  4.7243892377988D-01  1.5979274762074D+00
72  7.1000000000000D-01  4.3541931479552D-01  1.6088714012468D+00
73  7.2000000000000D-01  3.9949859198679D-01  1.6155789525608D+00
74  7.3000000000000D-01  3.6474133978930D-01  1.6180571044546D+00
75  7.4000000000000D-01  3.3120553455738D-01  1.6163308256725D+00
76  7.5000000000000D-01  2.9894246098210D-01  1.6104432069985D+00
77  7.6000000000000D-01  2.6799666049426D-01  1.6004555022508D+00
78  7.7000000000000D-01  2.3840591193816D-01  1.5864470754326D+00
79  7.8000000000000D-01  2.1020124462847D-01  1.5685152472933D+00
80  7.9000000000000D-01  1.8340698372250D-01  1.5467750352033D+00
81  8.0000000000000D-01  1.5804082765096D-01  1.5213587810505D+00
82  8.1000000000000D-01  1.3411395715548D-01  1.4924156628275D+00
83  8.2000000000000D-01  1.1163117528161D-01  1.4601110866741D+00
84  8.3000000000000D-01  9.0591077473198D-02  1.4246259573666D+00
85  8.4000000000000D-01  7.0986250710143D-02  1.3861558265891D+00
86  8.5000000000000D-01  5.2803500428613D-02  1.3449099197570D+00
87  8.6000000000000D-01  3.6024103762427D-02  1.3011100436828D+00
88  8.7000000000000D-01  2.0624087449270D-02  1.2549893789452D+00
89  8.8000000000000D-01  6.5745285574776D-03  1.2067911624320D+00
90  8.9000000000000D-01 -6.1581239892971D-03  1.1567672671433D+00
91  9.0000000000000D-01 -1.7611709278928D-02  1.1051766879484D+00
92  9.1000000000000D-01 -2.7827998011357D-02  1.0522839435501D+00
93  9.2000000000000D-01 -3.6852322311863D-02  9.9835740641079D-01
94  9.3000000000000D-01 -4.4733194354920D-02  9.4366757380308D-01
95  9.4000000000000D-01 -5.1521916495458D-02  8.8848529443893D-01
96  9.5000000000000D-01 -5.7272185681845D-02  8.3307996628733D-01
97  9.6000000000000D-01 -6.2039694979233D-02  7.7771772218784D-01
98  9.7000000000000D-01 -6.5881735061855D-02  7.2265962067043D-01
99  9.8000000000000D-01 -6.8856798538294D-02  6.6815986002119D-01
100  9.9000000000000D-01 -7.1024189951891D-02  6.1446403402753D-01
101  1.0000000000000D+00 -7.2443644251082D-02  5.6180744801207D-01
102  1.0100000000000D+00 -7.3174956450093D-02  5.1041351370541D-01
103  1.0200000000000D+00 -7.3277625100504D-02  4.6049224120987D-01
104  1.0300000000000D+00 -7.2810512063392D-02  4.1223884573321D-01
105  1.0400000000000D+00 -7.1831520927813D-02  3.6583248602466D-01
106  1.0500000000000D+00 -7.0397296239832D-02  3.2143515038633D-01
107  1.0600000000000D+00 -6.8562945508208D-02  2.7919070486238D-01
108  1.0700000000000D+00 -6.6381785738232D-02  2.3922411675688D-01
109  1.0800000000000D+00 -6.3905115998945D-02  2.0164086487557D-01
110  1.0900000000000D+00 -6.1182017286707D-02  1.6652654609568D-01
111  1.1000000000000D+00 -5.8259180680097D-02  1.3394668583144D-01
112  1.1100000000000D+00 -5.5180764488136D-02  1.0394675765714D-01
113  1.1200000000000D+00 -5.1988280825179D-02  7.6552415190892D-02
114  1.1300000000000D+00 -4.8720511728521D-02  5.1769936735293D-02
115  1.1400000000000D+00 -4.5413454703341D-02  2.9586881254372D-02
116  1.1500000000000D+00 -4.2100297204888D-02  9.9729510876973D-03
117  1.1600000000000D+00 -3.8811419340028D-02 -7.1189451690936D-03
118  1.1700000000000D+00 -3.5574424390817D-02 -2.1751429984730D-02
119  1.1800000000000D+00 -3.2414193267118D-02 -3.4001243685253D-02
120  1.1900000000000D+00 -2.9352965975662D-02 -4.3957626033320D-02
121  1.2000000000000D+00 -2.6410406613616D-02 -5.1721100451937D-02
122  1.2100000000000D+00 -2.3603931411176D-02 -5.7398708344538D-02
123  1.2200000000000D+00 -2.0948188277613D-02 -6.1111391658760D-02
124  1.2300000000000D+00 -1.8454385703127D-02 -6.3003365833930D-02
125  1.2400000000000D+00 -1.6129989296125D-02 -6.3245806672205D-02
126  1.2500000000000D+00 -1.3979155534284D-02 -6.2030427085104D-02
127  1.2600000000000D+00 -1.2003308532448D-02 -5.9561325613535D-02
128  1.2700000000000D+00 -1.0201567893244D-02 -5.6049359036082D-02
129  1.2800000000000D+00 -8.5711634557573D-03 -5.1706890895046D-02
130  1.2900000000000D+00 -7.1077976759576D-03 -4.6743444572779D-02
131  1.3000000000000D+00 -5.8059597101307D-03 -4.1362132626683D-02
132  1.3100000000000D+00 -4.6591952916873D-03 -3.5756753814080D-02
133  1.3200000000000D+00 -3.6603374616892D-03 -3.0109460446615D-02
134  1.3300000000000D+00 -2.8017024364975D-03 -2.4588904557977D-02
135  1.3400000000000D+00 -2.0752556411004D-03 -1.9348776453030D-02
136  1.3500000000000D+00 -1.4727505648182D-03 -1.4526689175128D-02
137  1.3600000000000D+00 -9.8584445216997D-04 -1.0243352300085D-02
138  1.3700000000000D+00 -6.0636823907706D-04 -6.6043970561425D-03
139  1.3800000000000D+00 -3.2484027739172D-04 -3.6794356018025D-03
140  1.3900000000000D+00 -1.3492472483307D-04 -1.5594736363486D-03
141  1.4000000000000D+00 -3.2244562938840D-05 -3.3759326749586D-04
142  1.4100000000000D+00  4.1392604098147D-06  1.1266334863085D-04
143  1.4200000000000D+00  4.9669830285485D-06  8.7902865129133D-05
144  1.4300000000000D+00 -1.3444490954178D-06 -2.2097169620732D-05
145  1.4400000000000D+00 -1.0011160656141D-06 -1.6130225698662D-05
146  1.4500000000000D+00  3.5202406494226D-07  5.7359128064993D-06
147  1.4600000000000D+00  5.5226699039840D-08  8.8830416624778D-07
148  1.4700000000000D+00 -9.7523687125293D-09 -2.9550470886588D-07
149  1.4800000000000D+00  0.0000000000000D+00  0.0000000000000D+00
150  1.4900000000000D+00  0.0000000000000D+00  0.0000000000000D+00
151  1.5000000000000D+00  0.0000000000000D+00  0.0000000000000D+00
152  1.5100000000000D+00  0.0000000000000D+00  0.0000000000000D+00
153  1.5200000000000D+00  0.0000000000000D+00  0.0000000000000D+00
154  1.5300000000000D+00  0.0000000000000D+00  0.0000000000000D+00
155  1.5400000000000D+00  0.0000000000000D+00  0.0000000000000D+00
156  1.5500000000000D+00  0.0000000000000D+00  0.0000000000000D+00
157  1.5600000000000D+00  0.0000000000000D+00  0.0000000000000D+00
158  1.5700000000000D+00  0.0000000000000D+00  0.0000000000000D+00
159  1.5800000000000D+00  0.0000000000000D+00  0.0000000000000D+00
160  1.5900000000000D+00  0.0000000000000D+00  0.0000000000000D+00
161  1.6000000000000D+00  0.0000000000000D+00  0.0000000000000D+00
162  1.6100000000000D+00  0.0000000000000D+00  0.0000000000000D+00
163  1.6200000000000D+00  0.0000000000000D+00  0.0000000000000D+00
164  1.6300000000000D+00  0.0000000000000D+00  0.0000000000000D+00
165  1.6400000000000D+00  0.0000000000000D+00  0.0000000000000D+00
166  1.6500000000000D+00  0.0000000000000D+00  0.0000000000000D+00
167  1.6600000000000D+00  0.0000000000000D+00  0.0000000000000D+00
168  1.6700000000000D+00  0.0000000000000D+00  0.0000000000000D+00
169  1.6800000000000D+00  0.0000000000000D+00  0.0000000000000D+00
170  1.6900000000000D+00  0.0000000000000D+00  0.0000000000000D+00
171  1.7000000000000D+00  0.0000000000000D+00  0.0000000000000D+00
172  1.7100000000000D+00  0.0000000000000D+00  0.0000000000000D+00
173  1.7200000000000D+00  0.0000000000000D+00  0.0000000000000D+00
174  1.7300000000000D+00  0.0000000000000D+00  0.0000000000000D+00
175  1.7400000000000D+00  0.0000000000000D+00  0.0000000000000D+00
176  1.7500000000000D+00  0.0000000000000D+00  0.0000000000000D+00
177  1.7600000000000D+00  0.0000000000000D+00  0.0000000000000D+00
178  1.7700000000000D+00  0.0000000000000D+00  0.0000000000000D+00
179  1.7800000000000D+00  0.0000000000000D+00  0.0000000000000D+00
180  1.7900000000000D+00  0.0000000000000D+00  0.0000000000000D+00
181  1.8000000000000D+00  0.0000000000000D+00  0.0000000000000D+00
182  1.8100000000000D+00  0.0000000000000D+00  0.0000000000000D+00
183  1.8200000000000D+00  0.0000000000000D+00  0.0000000000000D+00
184  1.8300000000000D+00  0.0000000000000D+00  0.0000000000000D+00
185  1.8400000000000D+00  0.0000000000000D+00  0.0000000000000D+00
186  1.8500000000000D+00  0.0000000000000D+00  0.0000000000000D+00
187  1.8600000000000D+00  0.0000000000000D+00  0.0000000000000D+00
188  1.8700000000000D+00  0.0000000000000D+00  0.0000000000000D+00
189  1.8800000000000D+00  0.0000000000000D+00  0.0000000000000D+00
190  1.8900000000000D+00  0.0000000000000D+00  0.0000000000000D+00
191  1.9000000000000D+00  0.0000000000000D+00  0.0000000000000D+00
192  1.9100000000000D+00  0.0000000000000D+00  0.0000000000000D+00
193  1.9200000000000D+00  0.0000000000000D+00  0.0000000000000D+00
194  1.9300000000000D+00  0.0000000000000D+00  0.0000000000000D+00
195  1.9400000000000D+00  0.0000000000000D+00  0.0000000000000D+00
196  1.9500000000000D+00  0.0000000000000D+00  0.0000000000000D+00
197  1.9600000000000D+00  0.0000000000000D+00  0.0000000000000D+00
198  1.9700000000000D+00  0.0000000000000D+00  0.0000000000000D+00
199  1.9800000000000D+00  0.0000000000000D+00  0.0000000000000D+00
200  1.9900000000000D+00  0.0000000000000D+00  0.0000000000000D+00
201  2.0000000000000D+00  0.0000000000000D+00  0.0000000000000D+00
202  2.0100000000000D+00  0.0000000000000D+00  0.0000000000000D+00
203  2.0200000000000D+00  0.0000000000000D+00  0.0000000000000D+00
204  2.0300000000000D+00  0.0000000000000D+00  0.0000000000000D+00
205  2.0400000000000D+00  0.0000000000000D+00  0.0000000000000D+00
206  2.0500000000000D+00  0.0000000000000D+00  0.0000000000000D+00
207  2.0600000000000D+00  0.0000000000000D+00  0.0000000000000D+00
208  2.0700000000000D+00  0.0000000000000D+00  0.0000000000000D+00
209  2.0800000000000D+00  0.0000000000000D+00  0.0000000000000D+00
210  2.0900000000000D+00  0.0000000000000D+00  0.0000000000000D+00
211  2.1000000000000D+00  0.0000000000000D+00  0.0000000000000D+00
212  2.1100000000000D+00  0.0000000000000D+00  0.0000000000000D+00
213  2.1200000000000D+00  0.0000000000000D+00  0.0000000000000D+00
214  2.1300000000000D+00  0.0000000000000D+00  0.0000000000000D+00
215  2.1400000000000D+00  0.0000000000000D+00  0.0000000000000D+00
216  2.1500000000000D+00  0.0000000000000D+00  0.0000000000000D+00
217  2.1600000000000D+00  0.0000000000000D+00  0.0000000000000D+00
218  2.1700000000000D+00  0.0000000000000D+00  0.0000000000000D+00
219  2.1800000000000D+00  0.0000000000000D+00  0.0000000000000D+00
220  2.1900000000000D+00  0.0000000000000D+00  0.0000000000000D+00
221  2.2000000000000D+00  0.0000000000000D+00  0.0000000000000D+00
222  2.2100000000000D+00  0.0000000000000D+00  0.0000000000000D+00
223  2.2200000000000D+00  0.0000000000000D+00  0.0000000000000D+00
224  2.2300000000000D+00  0.0000000000000D+00  0.0000000000000D+00
225  2.2400000000000D+00  0.0000000000000D+00  0.0000000000000D+00
226  2.2500000000000D+00  0.0000000000000D+00  0.0000000000000D+00
227  2.2600000000000D+00  0.0000000000000D+00  0.0000000000000D+00
228  2.2700000000000D+00  0.0000000000000D+00  0.0000000000000D+00
229  2.2800000000000D+00  0.0000000000000D+00  0.0000000000000D+00
230  2.2900000000000D+00  0.0000000000000D+00  0.0000000000000D+00
231  2.3000000000000D+00  0.0000000000000D+00  0.0000000000000D+00
232  2.3100000000000D+00  0.0000000000000D+00  0.0000000000000D+00
233  2.3200000000000D+00  0.0000000000000D+00  0.0000000000000D+00
234  2.3300000000000D+00  0.0000000000000D+00  0.0000000000000D+00
235  2.3400000000000D+00  0.0000000000000D+00  0.0000000000000D+00
236  2.3500000000000D+00  0.0000000000000D+00  0.0000000000000D+00
237  2.3600000000000D+00  0.0000000000000D+00  0.0000000000000D+00
238  2.3700000000000D+00  0.0000000000000D+00  0.0000000000000D+00
239  2.3800000000000D+00  0.0000000000000D+00  0.0000000000000D+00
240  2.3900000000000D+00  0.0000000000000D+00  0.0000000000000D+00
241  2.4000000000000D+00  0.0000000000000D+00  0.0000000000000D+00
242  2.4100000000000D+00  0.0000000000000D+00  0.0000000000000D+00
243  2.4200000000000D+00  0.0000000000000D+00  0.0000000000000D+00
244  2.4300000000000D+00  0.0000000000000D+00  0.0000000000000D+00
245  2.4400000000000D+00  0.0000000000000D+00  0.0000000000000D+00
246  2.4500000000000D+00  0.0000000000000D+00  0.0000000000000D+00
247  2.4600000000000D+00  0.0000000000000D+00  0.0000000000000D+00
248  2.4700000000000D+00  0.0000000000000D+00  0.0000000000000D+00
249  2.4800000000000D+00  0.0000000000000D+00  0.0000000000000D+00
250  2.4900000000000D+00  0.0000000000000D+00  0.0000000000000D+00
251  2.5000000000000D+00  0.0000000000000D+00  0.0000000000000D+00
252  2.5100000000000D+00  0.0000000000000D+00  0.0000000000000D+00
253  2.5200000000000D+00  0.0000000000000D+00  0.0000000000000D+00
254  2.5300000000000D+00  0.0000000000000D+00  0.0000000000000D+00
255  2.5400000000000D+00  0.0000000000000D+00  0.0000000000000D+00
256  2.5500000000000D+00  0.0000000000000D+00  0.0000000000000D+00
257  2.5600000000000D+00  0.0000000000000D+00  0.0000000000000D+00
258  2.5700000000000D+00  0.0000000000000D+00  0.0000000000000D+00
259  2.5800000000000D+00  0.0000000000000D+00  0.0000000000000D+00
260  2.5900000000000D+00  0.0000000000000D+00  0.0000000000000D+00
261  2.6000000000000D+00  0.0000000000000D+00  0.0000000000000D+00
262  2.6100000000000D+00  0.0000000000000D+00  0.0000000000000D+00
263  2.6200000000000D+00  0.0000000000000D+00  0.0000000000000D+00
264  2.6300000000000D+00  0.0000000000000D+00  0.0000000000000D+00
265  2.6400000000000D+00  0.0000000000000D+00  0.0000000000000D+00
266  2.6500000000000D+00  0.0000000000000D+00  0.0000000000000D+00
267  2.6600000000000D+00  0.0000000000000D+00  0.0000000000000D+00
268  2.6700000000000D+00  0.0000000000000D+00  0.0000000000000D+00
269  2.6800000000000D+00  0.0000000000000D+00  0.0000000000000D+00
270  2.6900000000000D+00  0.0000000000000D+00  0.0000000000000D+00
271  2.7000000000000D+00  0.0000000000000D+00  0.0000000000000D+00
272  2.7100000000000D+00  0.0000000000000D+00  0.0000000000000D+00
273  2.7200000000000D+00  0.0000000000000D+00  0.0000000000000D+00
274  2.7300000000000D+00  0.0000000000000D+00  0.0000000000000D+00
275  2.7400000000000D+00  0.0000000000000D+00  0.0000000000000D+00
276  2.7500000000000D+00  0.0000000000000D+00  0.0000000000000D+00
277  2.7600000000000D+00  0.0000000000000D+00  0.0000000000000D+00
278  2.7700000000000D+00  0.0000000000000D+00  0.0000000000000D+00
279  2.7800000000000D+00  0.0000000000000D+00  0.0000000000000D+00
280  2.7900000000000D+00  0.0000000000000D+00  0.0000000000000D+00
281  2.8000000000000D+00  0.0000000000000D+00  0.0000000000000D+00
282  2.8100000000000D+00  0.0000000000000D+00  0.0000000000000D+00
283  2.8200000000000D+00  0.0000000000000D+00  0.0000000000000D+00
284  2.8300000000000D+00  0.0000000000000D+00  0.0000000000000D+00
285  2.8400000000000D+00  0.0000000000000D+00  0.0000000000000D+00
286  2.8500000000000D+00  0.0000000000000D+00  0.0000000000000D+00
287  2.8600000000000D+00  0.0000000000000D+00  0.0000000000000D+00
288  2.8700000000000D+00  0.0000000000000D+00  0.0000000000000D+00
289  2.8800000000000D+00  0.0000000000000D+00  0.0000000000000D+00
290  2.8900000000000D+00  0.0000000000000D+00  0.0000000000000D+00
291  2.9000000000000D+00  0.0000000000000D+00  0.0000000000000D+00
292  2.9100000000000D+00  0.0000000000000D+00  0.0000000000000D+00
293  2.9200000000000D+00  0.0000000000000D+00  0.0000000000000D+00
294  2.9300000000000D+00  0.0000000000000D+00  0.0000000000000D+00
295  2.9400000000000D+00  0.0000000000000D+00  0.0000000000000D+00
296  2.9500000000000D+00  0.0000000000000D+00  0.0000000000000D+00
297  2.9600000000000D+00  0.0000000000000D+00  0.0000000000000D+00
298  2.9700000000000D+00  0.0000000000000D+00  0.0000000000000D+00
299  2.9800000000000D+00  0.0000000000000D+00  0.0000000000000D+00
300  2.9900000000000D+00  0.0000000000000D+00  0.0000000000000D+00
301  3.0000000000000D+00  0.0000000000000D+00  0.0000000000000D+00
302  3.0100000000000D+00  0.0000000000000D+00  0.0000000000000D+00
303  3.0200000000000D+00  0.0000000000000D+00  0.0000000000000D+00
304  3.0300000000000D+00  0.0000000000000D+00  0.0000000000000D+00
305  3.0400000000000D+00  0.0000000000000D+00  0.0000000000000D+00
306  3.0500000000000D+00  0.0000000000000D+00  0.0000000000000D+00
307  3.0600000000000D+00  0.0000000000000D+00  0.0000000000000D+00
308  3.0700000000000D+00  0.0000000000000D+00  0.0000000000000D+00
309  3.0800000000000D+00  0.0000000000000D+00  0.0000000000000D+00
310  3.0900000000000D+00  0.0000000000000D+00  0.0000000000000D+00
311  3.1000000000000D+00  0.0000000000000D+00  0.0000000000000D+00
312  3.1100000000000D+00  0.0000000000000D+00  0.0000000000000D+00
313  3.1200000000000D+00  0.0000000000000D+00  0.0000000000000D+00
314  3.1300000000000D+00  0.0000000000000D+00  0.0000000000000D+00
315  3.1400000000000D+00  0.0000000000000D+00  0.0000000000000D+00
316  3.1500000000000D+00  0.0000000000000D+00  0.0000000000000D+00
317  3.1600000000000D+00  0.0000000000000D+00  0.0000000000000D+00
318  3.1700000000000D+00  0.0000000000000D+00  0.0000000000000D+00
319  3.1800000000000D+00  0.0000000000000D+00  0.0000000000000D+00
320  3.1900000000000D+00  0.0000000000000D+00  0.0000000000000D+00
321  3.2000000000000D+00  0.0000000000000D+00  0.0000000000000D+00
322  3.2100000000000D+00  0.0000000000000D+00  0.0000000000000D+00
323  3.2200000000000D+00  0.0000000000000D+00  0.0000000000000D+00
324  3.2300000000000D+00  0.0000000000000D+00  0.0000000000000D+00
325  3.2400000000000D+00  0.0000000000000D+00  0.0000000000000D+00
326  3.2500000000000D+00  0.0000000000000D+00  0.0000000000000D+00
327  3.2600000000000D+00  0.0000000000000D+00  0.0000000000000D+00
328  3.2700000000000D+00  0.0000000000000D+00  0.0000000000000D+00
329  3.2800000000000D+00  0.0000000000000D+00  0.0000000000000D+00
330  3.2900000000000D+00  0.0000000000000D+00  0.0000000000000D+00
331  3.3000000000000D+00  0.0000000000000D+00  0.0000000000000D+00
332  3.3100000000000D+00  0.0000000000000D+00  0.0000000000000D+00
333  3.3200000000000D+00  0.0000000000000D+00  0.0000000000000D+00
334  3.3300000000000D+00  0.0000000000000D+00  0.0000000000000D+00
335  3.3400000000000D+00  0.0000000000000D+00  0.0000000000000D+00
336  3.3500000000000D+00  0.0000000000000D+00  0.0000000000000D+00
337  3.3600000000000D+00  0.0000000000000D+00  0.0000000000000D+00
338  3.3700000000000D+00  0.0000000000000D+00  0.0000000000000D+00
339  3.3800000000000D+00  0.0000000000000D+00  0.0000000000000D+00
340  3.3900000000000D+00  0.0000000000000D+00  0.0000000000000D+00
341  3.4000000000000D+00  0.0000000000000D+00  0.0000000000000D+00
342  3.4100000000000D+00  0.0000000000000D+00  0.0000000000000D+00
343  3.4200000000000D+00  0.0000000000000D+00  0.0000000000000D+00
344  3.4300000000000D+00  0.0000000000000D+00  0.0000000000000D+00
345  3.4400000000000D+00  0.0000000000000D+00  0.0000000000000D+00
346  3.4500000000000D+00  0.0000000000000D+00  0.0000000000000D+00
347  3.4600000000000D+00  0.0000000000000D+00  0.0000000000000D+00
348  3.4700000000000D+00  0.0000000000000D+00  0.0000000000000D+00
349  3.4800000000000D+00  0.0000000000000D+00  0.0000000000000D+00
350  3.4900000000000D+00  0.0000000000000D+00  0.0000000000000D+00
351  3.5000000000000D+00  0.0000000000000D+00  0.0000000000000D+00
352  3.5100000000000D+00  0.0000000000000D+00  0.0000000000000D+00
353  3.5200000000000D+00  0.0000000000000D+00  0.0000000000000D+00
354  3.5300000000000D+00  0.0000000000000D+00  0.0000000000000D+00
355  3.5400000000000D+00  0.0000000000000D+00  0.0000000000000D+00
356  3.5500000000000D+00  0.0000000000000D+00  0.0000000000000D+00
357  3.5600000000000D+00  0.0000000000000D+00  0.0000000000000D+00
358  3.5700000000000D+00  0.0000000000000D+00  0.0000000000000D+00
359  3.5800000000000D+00  0.0000000000000D+00  0.0000000000000D+00
360  3.5900000000000D+00  0.0000000000000D+00  0.0000000000000D+00
361  3.6000000000000D+00  0.0000000000000D+00  0.0000000000000D+00
362  3.6100000000000D+00  0.0000000000000D+00  0.0000000000000D+00
363  3.6200000000000D+00  0.0000000000000D+00  0.0000000000000D+00
364  3.6300000000000D+00  0.0000000000000D+00  0.0000000000000D+00
365  3.6400000000000D+00  0.0000000000000D+00  0.0000000000000D+00
366  3.6500000000000D+00  0.0000000000000D+00  0.0000000000000D+00
367  3.6600000000000D+00  0.0000000000000D+00  0.0000000000000D+00
368  3.6700000000000D+00  0.0000000000000D+00  0.0000000000000D+00
369  3.6800000000000D+00  0.0000000000000D+00  0.0000000000000D+00
370  3.6900000000000D+00  0.0000000000000D+00  0.0000000000000D+00
371  3.7000000000000D+00  0.0000000000000D+00  0.0000000000000D+00
372  3.7100000000000D+00  0.0000000000000D+00  0.0000000000000D+00
373  3.7200000000000D+00  0.0000000000000D+00  0.0000000000000D+00
374  3.7300000000000D+00  0.0000000000000D+00  0.0000000000000D+00
375  3.7400000000000D+00  0.0000000000000D+00  0.0000000000000D+00
376  3.7500000000000D+00  0.0000000000000D+00  0.0000000000000D+00
377  3.7600000000000D+00  0.0000000000000D+00  0.0000000000000D+00
378  3.7700000000000D+00  0.0000000000000D+00  0.0000000000000D+00
379  3.7800000000000D+00  0.0000000000000D+00  0.0000000000000D+00
380  3.7900000000000D+00  0.0000000000000D+00  0.0000000000000D+00
381  3.8000000000000D+00  0.0000000000000D+00  0.0000000000000D+00
382  3.8100000000000D+00  0.0000000000000D+00  0.0000000000000D+00
383  3.8200000000000D+00  0.0000000000000D+00  0.0000000000000D+00
384  3.8300000000000D+00  0.0000000000000D+00  0.0000000000000D+00
385  3.8400000000000D+00  0.0000000000000D+00  0.0000000000000D+00
386  3.8500000000000D+00  0.0000000000000D+00  0.0000000000000D+00
387  3.8600000000000D+00  0.0000000000000D+00  0.0000000000000D+00
388  3.8700000000000D+00  0.0000000000000D+00  0.0000000000000D+00
389  3.8800000000000D+00  0.0000000000000D+00  0.0000000000000D+00
390  3.8900000000000D+00  0.0000000000000D+00  0.0000000000000D+00
391  3.9000000000000D+00  0.0000000000000D+00  0.0000000000000D+00
392  3.9100000000000D+00  0.0000000000000D+00  0.0000000000000D+00
393  3.9200000000000D+00  0.0000000000000D+00  0.0000000000000D+00
394  3.9300000000000D+00  0.0000000000000D+00  0.0000000000000D+00
395  3.9400000000000D+00  0.0000000000000D+00  0.0000000000000D+00
396  3.9500000000000D+00  0.0000000000000D+00  0.0000000000000D+00
397  3.9600000000000D+00  0.0000000000000D+00  0.0000000000000D+00
398  3.9700000000000D+00  0.0000000000000D+00  0.0000000000000D+00
399  3.9800000000000D+00  0.0000000000000D+00  0.0000000000000D+00
400  3.9900000000000D+00  0.0000000000000D+00  0.0000000000000D+00
401  4.0000000000000D+00  0.0000000000000D+00  0.0000000000000D+00
402  4.0100000000000D+00  0.0000000000000D+00  0.0000000000000D+00
403  4.0200000000000D+00  0.0000000000000D+00  0.0000000000000D+00
404  4.0300000000000D+00  0.0000000000000D+00  0.0000000000000D+00
405  4.0400000000000D+00  0.0000000000000D+00  0.0000000000000D+00
406  4.0500000000000D+00  0.0000000000000D+00  0.0000000000000D+00
407  4.0600000000000D+00  0.0000000000000D+00  0.0000000000000D+00
408  4.0700000000000D+00  0.0000000000000D+00  0.0000000000000D+00
409  4.0800000000000D+00  0.0000000000000D+00  0.0000000000000D+00
410  4.0900000000000D+00  0.0000000000000D+00  0.0000000000000D+00
411  4.1000000000000D+00  0.0000000000000D+00  0.0000000000000D+00
412  4.1100000000000D+00  0.0000000000000D+00  0.0000000000000D+00
413  4.1200000000000D+00  0.0000000000000D+00  0.0000000000000D+00
414  4.1300000000000D+00  0.0000000000000D+00  0.0000000000000D+00
415  4.1400000000000D+00  0.0000000000000D+00  0.0000000000000D+00
416  4.1500000000000D+00  0.0000000000000D+00  0.0000000000000D+00
417  4.1600000000000D+00  0.0000000000000D+00  0.0000000000000D+00
418  4.1700000000000D+00  0.0000000000000D+00  0.0000000000000D+00
419  4.1800000000000D+00  0.0000000000000D+00  0.0000000000000D+00
420  4.1900000000000D+00  0.0000000000000D+00  0.0000000000000D+00
421  4.2000000000000D+00  0.0000000000000D+00  0.0000000000000D+00
422  4.2100000000000D+00  0.0000000000000D+00  0.0000000000000D+00
423  4.2200000000000D+00  0.0000000000000D+00  0.0000000000000D+00
424  4.2300000000000D+00  0.0000000000000D+00  0.0000000000000D+00
425  4.2400000000000D+00  0.0000000000000D+00  0.0000000000000D+00
426  4.2500000000000D+00  0.0000000000000D+00  0.0000000000000D+00
427  4.2600000000000D+00  0.0000000000000D+00  0.0000000000000D+00
428  4.2700000000000D+00  0.0000000000000D+00  0.0000000000000D+00
429  4.2800000000000D+00  0.0000000000000D+00  0.0000000000000D+00
430  4.2900000000000D+00  0.0000000000000D+00  0.0000000000000D+00
431  4.3000000000000D+00  0.0000000000000D+00  0.0000000000000D+00
432  4.3100000000000D+00  0.0000000000000D+00  0.0000000000000D+00
433  4.3200000000000D+00  0.0000000000000D+00  0.0000000000000D+00
434  4.3300000000000D+00  0.0000000000000D+00  0.0000000000000D+00
435  4.3400000000000D+00  0.0000000000000D+00  0.0000000000000D+00
436  4.3500000000000D+00  0.0000000000000D+00  0.0000000000000D+00
437  4.3600000000000D+00  0.0000000000000D+00  0.0000000000000D+00
438  4.3700000000000D+00  0.0000000000000D+00  0.0000000000000D+00
439  4.3800000000000D+00  0.0000000000000D+00  0.0000000000000D+00
440  4.3900000000000D+00  0.0000000000000D+00  0.0000000000000D+00
441  4.4000000000000D+00  0.0000000000000D+00  0.0000000000000D+00
442  4.4100000000000D+00  0.0000000000000D+00  0.0000000000000D+00
443  4.4200000000000D+00  0.0000000000000D+00  0.0000000000000D+00