<?xml version="1.0" encoding="UTF-8" ?>
<psml version="1.1" energy_unit="hartree" length_unit="bohr"
 uuid="1d3bb2f0-539e-11e8-60f3-5d32ebe85b9f"
 xmlns="http://esl.cecam.org/PSML/ns/1.1">
<provenance creator="ONCVPSP-3.3.0+psml-3.3.0-73 (fully-relativistic)"
 date="2018-05-09">
<annotation action="semilocal-pseudopotential-generation"
 action-cont="projectors-generation" />
<input-file name="oncvpsp-input">
<![CDATA[# atsym z nc nv iexc psfile
P 15 3 2 -116133 upf
# n l f
1 0 2.0
2 0 2.0
2 1 6.0
3 0 2.0
3 1 3.0
# lmax
2
# l rc ep ncon nbas qcut
0 1.45 0.0 4 9 6.2
1 1.55 0.0 4 9 6.6
2 1.7 0.05 4 9 6.6
# lloc lpopt rc5 dvloc0
4 5 1.45 0.0
# l nproj debl
0 2 3.0
1 2 2.5
2 2 2.0
# icmod fcfact rcfact
3 5.0 1.1
# epsh1 epsh2 depsh
-12.0 12.0 0.02
# rlmax drl
6.0 0.01
 0
]]>
</input-file>
</provenance>
<pseudo-atom-spec atomic-label="P" atomic-number="15" z-pseudo="5"
 flavor="Hamann&apos;s oncvpsp" relativity="dirac" spin-dft="no"
 core-corrections="yes">
<annotation pseudo-energy="-6.40171508547" />
<exchange-correlation>
<annotation oncvpsp-xc-code="-116133" oncvpsp-xc-type="libxc-interface" />
<libxc-info number-of-functionals="2">
<functional name="Perdew, Burke &amp; Ernzerhof SOL (GGA)" type="exchange"
 id="116" />
<functional name="Perdew, Burke &amp; Ernzerhof SOL (GGA)" type="correlation"
 id="133" />
</libxc-info>
</exchange-correlation>
<valence-configuration total-valence-charge="5">
<shell n="3" l="s" occupation="2" />
<shell n="3" l="p" occupation="3" />
</valence-configuration>
</pseudo-atom-spec>
<grid npts="457">
<annotation type="sampled from oncvpsp log grid"
 recipe="r(i:1..N) = r1*exp(a*(i-1)) + r=0; resampled"
 recipe-cont="r1: scale; a: step" scale="0.333333333333E-04"
 step="0.119285708653E-01" delta="0.500000000000E-02" rmax="44.2837637062" />
<grid-data>
  0.000000000000E+00  5.056785236402E-03  1.010053166746E-02  1.515240813643E-02
  2.017501934448E-02  2.530717669722E-02  3.062893508784E-02  3.576667430480E-02
  4.078159407628E-02  4.594828673528E-02  5.115568860978E-02  5.627791965710E-02
  6.191304089543E-02  6.730475112585E-02  7.316599957938E-02  7.859454159214E-02
  8.442585358759E-02  8.961444568504E-02  9.512191507908E-02  1.009678591341E-01
  1.071730796174E-01  1.124107279825E-01  1.179043451086E-01  1.236664404276E-01
  1.297101347195E-01  1.360491899885E-01  1.426980408012E-01  1.478970624059E-01
  1.532855037496E-01  1.588702660996E-01  1.646585021619E-01  1.706576252426E-01
  1.768753187418E-01  1.833195459948E-01  1.899985604706E-01  1.969209163432E-01
  2.040954794468E-01  2.115314386309E-01  2.166386536853E-01  2.218691773398E-01
  2.272259867575E-01  2.327121309818E-01  2.383307326722E-01  2.440849898819E-01
  2.499781778776E-01  2.560136510042E-01  2.621948445941E-01  2.685252769220E-01
  2.750085512080E-01  2.816483576683E-01  2.884484756159E-01  2.954127756112E-01
  3.025452216655E-01  3.098498734974E-01  3.173308888431E-01  3.249925258234E-01
  3.328391453668E-01  3.408752136926E-01  3.491053048520E-01  3.575341033323E-01
  3.661664067232E-01  3.750071284471E-01  3.840613005563E-01  3.933340765969E-01
  4.028307345423E-01  4.125566797971E-01  4.225174482741E-01  4.275876576534E-01
  4.327187095452E-01  4.379113340598E-01  4.431662700685E-01  4.484842653093E-01
  4.538660764930E-01  4.593124694110E-01  4.648242190439E-01  4.704021096724E-01
  4.760469349885E-01  4.817594982083E-01  4.875406121868E-01  4.933910995331E-01
  4.993117927275E-01  5.053035342402E-01  5.113671766511E-01  5.175035827709E-01
  5.237136257642E-01  5.299981892733E-01  5.363581675446E-01  5.427944655551E-01
  5.493079991418E-01  5.558996951315E-01  5.625704914731E-01  5.693213373708E-01
  5.761531934192E-01  5.830670317402E-01  5.900638361211E-01  5.971446021546E-01
  6.043103373804E-01  6.115620614290E-01  6.189008061661E-01  6.263276158401E-01
  6.338435472302E-01  6.414496697970E-01  6.491470658345E-01  6.569368306246E-01
  6.648200725921E-01  6.727979134632E-01  6.808714884247E-01  6.890419462858E-01
  6.973104496412E-01  7.056781750369E-01  7.141463131374E-01  7.227160688950E-01
  7.313886617218E-01  7.401653256624E-01  7.490473095704E-01  7.580358772852E-01
  7.671323078126E-01  7.763378955064E-01  7.856539502525E-01  7.950817976555E-01
  8.046227792274E-01  8.142782525781E-01  8.240495916090E-01  8.339381867083E-01
  8.439454449488E-01  8.540727902882E-01  8.643216637717E-01  8.746935237370E-01
  8.851898460218E-01  8.958121241741E-01  9.065618696641E-01  9.174406121001E-01
  9.284498994453E-01  9.395912982387E-01  9.508663938175E-01  9.622767905433E-01
  9.738241120299E-01  9.855100013742E-01  9.973361213907E-01  1.009304154847E+00
  1.021415804706E+00  1.033672794362E+00  1.046076867894E+00  1.058629790309E+00
  1.071333347793E+00  1.084189347966E+00  1.097199620142E+00  1.110366015584E+00
  1.123690407771E+00  1.137174692664E+00  1.150820788976E+00  1.164630638444E+00
  1.178606206105E+00  1.192749480578E+00  1.207062474345E+00  1.221547224037E+00
  1.236205790726E+00  1.251040260214E+00  1.266052743337E+00  1.281245376257E+00
  1.296620320772E+00  1.312179764621E+00  1.327925921797E+00  1.343861032858E+00
  1.359987365253E+00  1.376307213636E+00  1.392822900199E+00  1.409536775002E+00
  1.426451216302E+00  1.443568630897E+00  1.460891454468E+00  1.478422151922E+00
  1.496163217745E+00  1.514117176358E+00  1.532286582474E+00  1.550674021464E+00
  1.569282109721E+00  1.588113495038E+00  1.607170856978E+00  1.626456907262E+00
  1.645974390149E+00  1.665726082831E+00  1.685714795825E+00  1.705943373375E+00
  1.726414693855E+00  1.747131670182E+00  1.768097250224E+00  1.789314417227E+00
  1.810786190233E+00  1.832515624516E+00  1.854505812010E+00  1.876759881754E+00
  1.899281000335E+00  1.922072372339E+00  1.945137240808E+00  1.968478887697E+00
  1.992100634350E+00  2.016005841962E+00  2.040197912065E+00  2.064680287010E+00
  2.089456450454E+00  2.114529927860E+00  2.139904286994E+00  2.165583138438E+00
  2.191570136099E+00  2.217868977732E+00  2.244483405465E+00  2.271417206331E+00
  2.298674212807E+00  2.326258303360E+00  2.354173403001E+00  2.382423483837E+00
  2.411012565643E+00  2.439944716430E+00  2.469224053028E+00  2.498854741664E+00
  2.528840998564E+00  2.559187090547E+00  2.589897335633E+00  2.620976103661E+00
  2.652427816905E+00  2.684256950708E+00  2.716468034116E+00  2.749065650526E+00
  2.782054438332E+00  2.815439091592E+00  2.849224360691E+00  2.883415053019E+00
  2.918016033655E+00  2.953032226059E+00  2.988468612772E+00  3.024330236125E+00
  3.060622198959E+00  3.097349665346E+00  3.134517861330E+00  3.172132075666E+00
  3.210197660574E+00  3.248720032501E+00  3.287704672891E+00  3.327157128966E+00
  3.367083014514E+00  3.407488010688E+00  3.448377866816E+00  3.489758401218E+00
  3.531635502032E+00  3.574015128057E+00  3.616903309594E+00  3.660306149309E+00
  3.704229823100E+00  3.748680580978E+00  3.793664747949E+00  3.839188724925E+00
  3.885258989624E+00  3.931882097499E+00  3.979064682669E+00  4.026813458861E+00
  4.075135220368E+00  4.124036843012E+00  4.173525285128E+00  4.223607588550E+00
  4.274290879612E+00  4.325582370168E+00  4.377489358610E+00  4.430019230913E+00
  4.483179461684E+00  4.536977615224E+00  4.591421346607E+00  4.646518402766E+00
  4.702276623599E+00  4.758703943083E+00  4.815808390400E+00  4.873598091084E+00
  4.932081268177E+00  4.991266243395E+00  5.051161438316E+00  5.111775375576E+00
  5.173116680083E+00  5.235194080244E+00  5.298016409207E+00  5.361592606117E+00
  5.425931717391E+00  5.491042897999E+00  5.556935412775E+00  5.623618637729E+00
  5.691102061381E+00  5.759395286118E+00  5.828508029551E+00  5.898450125906E+00
  5.969231527417E+00  6.040862305746E+00  6.113352653415E+00  6.186712885256E+00
  6.260953439879E+00  6.336084881157E+00  6.412117899731E+00  6.489063314528E+00
  6.566932074303E+00  6.645735259194E+00  6.725484082304E+00  6.806189891292E+00
  6.887864169988E+00  6.970518540027E+00  7.054164762508E+00  7.138814739658E+00
  7.224480516534E+00  7.311174282732E+00  7.398908374125E+00  7.487695274614E+00
  7.577547617910E+00  7.668478189325E+00  7.760499927597E+00  7.853625926728E+00
  7.947869437849E+00  8.043243871103E+00  8.139762797556E+00  8.237439951127E+00
  8.336289230540E+00  8.436324701307E+00  8.537560597722E+00  8.640011324895E+00
  8.743691460794E+00  8.848615758323E+00  8.954799147423E+00  9.062256737192E+00
  9.171003818039E+00  9.281055863855E+00  9.392428534221E+00  9.505137676632E+00
  9.619199328751E+00  9.734629720697E+00  9.851445277345E+00  9.969662620673E+00
  1.008929857212E+01  1.021037015499E+01  1.033289459685E+01  1.045688933201E+01
  1.058237200399E+01  1.070936046804E+01  1.083787279366E+01  1.096792726718E+01
  1.109954239439E+01  1.123273690312E+01  1.136752974596E+01  1.150394010291E+01
  1.164198738414E+01  1.178169123275E+01  1.192307152755E+01  1.206614838588E+01
  1.221094216651E+01  1.235747347251E+01  1.250576315418E+01  1.265583231203E+01
  1.280770229977E+01  1.296139472737E+01  1.311693146410E+01  1.327433464166E+01
  1.343362665736E+01  1.359483017725E+01  1.375796813938E+01  1.392306375705E+01
  1.409014052214E+01  1.425922220840E+01  1.443033287490E+01  1.460349686940E+01
  1.477873883184E+01  1.495608369782E+01  1.513555670219E+01  1.531718338262E+01
  1.550098958321E+01  1.568700145821E+01  1.587524547571E+01  1.606574842141E+01
  1.625853740247E+01  1.645363985130E+01  1.665108352952E+01  1.685089653187E+01
  1.705310729025E+01  1.725774457774E+01  1.746483751267E+01  1.767441556282E+01
  1.788650854958E+01  1.810114665217E+01  1.831836041200E+01  1.853818073694E+01
  1.876063890578E+01  1.898576657265E+01  1.921359577152E+01  1.944415892078E+01
  1.967748882783E+01  1.991361869377E+01  2.015258211809E+01  2.039441310351E+01
  2.063914606075E+01  2.088681581348E+01  2.113745760324E+01  2.139110709448E+01
  2.164780037961E+01  2.190757398417E+01  2.217046487198E+01  2.243651045044E+01
  2.270574857585E+01  2.297821755876E+01  2.325395616946E+01  2.353300364350E+01
  2.381539968722E+01  2.410118448347E+01  2.439039869727E+01  2.468308348163E+01
  2.497928048341E+01  2.527903184922E+01  2.558238023141E+01  2.588936879418E+01
  2.620004121971E+01  2.651444171435E+01  2.683261501492E+01  2.715460639510E+01
  2.748046167184E+01  2.781022721190E+01  2.814394993845E+01  2.848167733771E+01
  2.882345746576E+01  2.916933895535E+01  2.951937102281E+01  2.987360347509E+01
  3.023208671679E+01  3.059487175739E+01  3.096201021848E+01  3.133355434110E+01
  3.170955699319E+01  3.209007167711E+01  3.247515253724E+01  3.286485436768E+01
  3.325923262010E+01  3.365834341154E+01  3.406224353248E+01  3.447099045487E+01
  3.488464234032E+01  3.530325804841E+01  3.572689714499E+01  3.615561991073E+01
  3.658948734966E+01  3.702856119785E+01  3.747290393223E+01  3.792257877942E+01
  3.837764972477E+01  3.883818152147E+01  3.930423969972E+01  3.977589057612E+01
  4.025320126303E+01  4.073623967819E+01  4.122507455433E+01  4.171977544898E+01
  4.222041275437E+01  4.272705770742E+01  4.323978239991E+01  4.375865978871E+01
  4.428376370617E+01
</grid-data>
</grid>
<valence-charge total-charge="5" is-unscreening-charge="yes"
 rescaled-to-z-pseudo="no">
<radfunc>
<data npts="457">
  1.475793949994E-02  1.478714356065E-02  1.487446435791E-02  1.502021252720E-02
  1.522299203033E-02  1.548987316906E-02  1.583041830959E-02  1.622093558317E-02
  1.666075094084E-02  1.717461116584E-02  1.775507028891E-02  1.838749783554E-02
  1.915392734945E-02  1.995685308223E-02  2.090727819244E-02  2.185998299933E-02
  2.296141530208E-02  2.400979413409E-02  2.519344227949E-02  2.653015809973E-02
  2.804017269216E-02  2.938832463334E-02  3.087529867672E-02  3.251579897496E-02
  3.432616902360E-02  3.632458964547E-02  3.853130323533E-02  4.033650583759E-02
  4.228197219928E-02  4.437906487311E-02  4.664012936303E-02  4.907858604546E-02
  5.170903100235E-02  5.454734649577E-02  5.761082180732E-02  6.091828513103E-02
  6.449024713648E-02  6.834905669650E-02  7.109289551383E-02  7.398275032984E-02
  7.702682669407E-02  8.023381328518E-02  8.361290905971E-02  8.717385127445E-02
  9.092694425707E-02  9.488308876114E-02  9.905381169851E-02  1.034512959915E-01
  1.080884102312E-01  1.129787377631E-01  1.181366047533E-01  1.235771067075E-01
  1.293161328323E-01  1.353703875382E-01  1.417574082861E-01  1.484955788817E-01
  1.556041372198E-01  1.631031763799E-01  1.710136378783E-01  1.793572957917E-01
  1.881567303896E-01  1.974352898483E-01  2.072170385804E-01  2.175266906932E-01
  2.283895271034E-01  2.398312948807E-01  2.518780874673E-01  2.581365829236E-01
  2.645562045354E-01  2.711402454743E-01  2.778919903810E-01  2.848147090770E-01
  2.919116499077E-01  2.991860327132E-01  3.066410414219E-01  3.142798162637E-01
  3.221054455984E-01  3.301209573554E-01  3.383293100810E-01  3.467333835879E-01
  3.553359692005E-01  3.641397595902E-01  3.731473381896E-01  3.823611681755E-01
  3.917835810055E-01  4.014167644911E-01  4.112627503836E-01  4.213234014491E-01
  4.316003979980E-01  4.420952238326E-01  4.528091515698E-01  4.637432272853E-01
  4.748982544243E-01  4.862747769113E-01  4.978730613865E-01  5.096930784892E-01
  5.217344830998E-01  5.339965934488E-01  5.464783689934E-01  5.591783869611E-01
  5.720948174568E-01  5.852253970322E-01  5.985674006216E-01  6.121176117533E-01
  6.258722909635E-01  6.398271423533E-01  6.539772782557E-01  6.683171820098E-01
  6.828406688763E-01  6.975408451744E-01  7.124100657738E-01  7.274398901362E-01
  7.426210371729E-01  7.579433392618E-01  7.733956958548E-01  7.889660271972E-01
  8.046412287831E-01  8.204071272680E-01  8.362484386670E-01  8.521487297677E-01
  8.680903837837E-01  8.840545713628E-01  9.000212281394E-01  9.159690400764E-01
  9.318754378742E-01  9.477166017290E-01  9.634674776865E-01  9.791018067703E-01
  9.945921679394E-01  1.009910035762E+00  1.025025853473E+00  1.039909121796E+00
  1.054528503590E+00  1.068851943974E+00  1.082846805172E+00  1.096480014830E+00
  1.109718226062E+00  1.122527986968E+00  1.134875916862E+00  1.146728885984E+00
  1.158054195020E+00  1.168819750465E+00  1.178994231603E+00  1.188547244840E+00
  1.197449461196E+00  1.205672733100E+00  1.213190187133E+00  1.219976290167E+00
  1.226006887330E+00  1.231259211508E+00  1.235711865575E+00  1.239344780180E+00
  1.242139151740E+00  1.244077367120E+00  1.245142923317E+00  1.245320352136E+00
  1.244595161283E+00  1.242953804326E+00  1.240383692501E+00  1.236873261170E+00
  1.232412102846E+00  1.226991176882E+00  1.220603103215E+00  1.213242543903E+00
  1.204906671615E+00  1.195595718978E+00  1.185313596769E+00  1.174068562833E+00
  1.161873917540E+00  1.148748696070E+00  1.134718323271E+00  1.119814867782E+00
  1.104075829677E+00  1.087542062405E+00  1.070257613823E+00  1.052270357578E+00
  1.033631629783E+00  1.014394873066E+00  9.946135111902E-01  9.743404316765E-01
  9.536282009739E-01  9.325287416983E-01  9.110932179771E-01  8.893718960951E-01
  8.674140159523E-01  8.452676706236E-01  8.229796942755E-01  8.005955587011E-01
  7.781592786795E-01  7.557133263217E-01  7.332985545088E-01  7.109541294826E-01
  6.887174725903E-01  6.666242111334E-01  6.447081382216E-01  6.230011814799E-01
  6.015333804111E-01  5.803328721726E-01  5.594258854850E-01  5.388367423533E-01
  5.185878672490E-01  4.986998033725E-01  4.791912355903E-01  4.600790196218E-01
  4.413782170340E-01  4.231021355894E-01  4.052623744854E-01  3.878688740166E-01
  3.709299691947E-01  3.544524468565E-01  3.384416058021E-01  3.229013195097E-01
  3.078341009926E-01  2.932411693346E-01  2.791225175603E-01  2.654769813763E-01
  2.523023084379E-01  2.395952277775E-01  2.273515190598E-01  2.155660813463E-01
  2.042330010806E-01  1.933456190217E-01  1.828965958822E-01  1.728779764480E-01
  1.632812519797E-01  1.540974207196E-01  1.453170463512E-01  1.369303142779E-01
  1.289270856119E-01  1.212969487819E-01  1.140292686958E-01  1.071132333983E-01
  1.005378981979E-01  9.429222724693E-02  8.836513257355E-02  8.274551058335E-02
  7.742227605833E-02  7.238439369589E-02  6.762090724009E-02  6.312096626804E-02
  5.887385070180E-02  5.486899312361E-02  5.109599897731E-02  4.754466474274E-02
  4.420499417272E-02  4.106721268319E-02  3.812177998719E-02  3.535940106261E-02
  3.277103554125E-02  3.034790560464E-02  2.808150246874E-02  2.596359153617E-02
  2.398621629147E-02  2.214170101125E-02  2.042265235814E-02  1.882195992465E-02
  1.733279579080E-02  1.594861315757E-02  1.466314411679E-02  1.347039661741E-02
  1.236465068737E-02  1.134045397025E-02  1.039261663560E-02  9.516205722071E-03
  8.706538972323E-03  7.959178218417E-03  7.269922376181E-03  6.634800106116E-03
  6.050062197485E-03  5.512173730726E-03  5.017806071559E-03  4.563828747964E-03
  4.147301258699E-03  3.765464859204E-03  3.415734367670E-03  3.095690030741E-03
  2.803069484923E-03  2.535759846195E-03  2.291789956775E-03  2.069322814404E-03
  1.866648205999E-03  1.682175564085E-03  1.514427061151E-03  1.362030953887E-03
  1.223715186344E-03  1.098301258273E-03  9.846983623651E-04  8.818977918205E-04
  7.889676175472E-04  7.050476324889E-04  6.293445589347E-04  5.611275132889E-04
  4.997237216102E-04  4.445144782800E-04  3.949313394020E-04  3.504525419714E-04
  3.105996394543E-04  2.749343441763E-04  2.430555668103E-04  2.145966432668E-04
  1.892227393996E-04  1.666284241337E-04  1.465354018806E-04  1.286903954130E-04
  1.128631707177E-04  9.884469570890E-05  8.644542506585E-05  7.549370383810E-05
  6.583428284158E-05  5.732693923470E-05  4.984519601792E-05  4.327513453686E-05
  3.751429438721E-05  3.247065541870E-05  2.806169681553E-05  2.421352849255E-05
  2.086009029106E-05  1.794241468697E-05  1.540794893913E-05  1.320993280744E-05
  1.130682816177E-05  9.661796984122E-06  8.242224439873E-06  7.019283859786E-06
  5.967540634724E-06  5.064592179204E-06  4.290741269790E-06  3.628700209541E-06
  3.063323411004E-06  2.581366127598E-06  2.171267196767E-06  1.822953788027E-06
  1.527666274902E-06  1.277801471630E-06  1.066772593305E-06  8.888844116683E-07
  7.392221878806E-07  6.135530682300E-07  5.082387286927E-07  4.201581494724E-07
  3.466394910620E-07  2.854001289246E-07  2.344939845973E-07  1.922653668842E-07
  1.573086078935E-07  1.284328450505E-07  1.046313620074E-07  8.505495867928E-08
  6.898887363507E-08  5.583283090848E-08  4.508382815963E-08  3.632132419842E-08
  2.919452137529E-08  2.341147245923E-08  1.872977256215E-08  1.494862464117E-08
  1.190209232093E-08  9.453376429359E-09  7.489971928447E-09  5.919580037651E-09
  4.666666473884E-09  3.669571043346E-09  2.878086482086E-09  2.251435609918E-09
  1.756585682455E-09  1.366847434634E-09  1.060713832680E-09  8.209001065270E-10
  6.335523285565E-10  4.875967349022E-10  3.742062419148E-10  2.863642732983E-10
  2.185091559813E-10  1.662450304476E-10  1.261075126896E-10  9.537429242148E-11
  7.191250210616E-11  5.405608471171E-11  4.050756106397E-11  3.025958187212E-11
  2.253247267408E-11  1.672466617549E-11  1.237348663956E-11  9.124223177047E-12
  6.705818519155E-12  4.911820446411E-12  3.585505863476E-12  2.608302225669E-12
  1.890805834072E-12  1.365838341452E-12  9.830974694207E-13  7.050503021723E-13
  5.037916609143E-13  3.586493561556E-13  2.543653612470E-13  1.797194580814E-13
  1.264915706500E-13  8.868237535863E-14  6.193012264055E-14  4.307594825968E-14
  2.984112391382E-14  2.058836272312E-14  1.414599092073E-14  9.678949625925E-15
  6.594538866066E-15  4.473834310802E-15  3.021983777986E-15  2.032349572289E-15
  1.360741843356E-15  9.069865113907E-16  6.017971041477E-16  3.974656927483E-16
  2.612915035279E-16  1.709631333559E-16  1.113284803599E-16  7.214585798367E-17
  4.652560527824E-17  2.985532341367E-17  1.906222091650E-17  1.210930193716E-17
  7.652947759885E-18  0.000000000000E+00  0.000000000000E+00  0.000000000000E+00
  0.000000000000E+00  0.000000000000E+00  0.000000000000E+00  0.000000000000E+00
  0.000000000000E+00  0.000000000000E+00  0.000000000000E+00  0.000000000000E+00
  0.000000000000E+00  0.000000000000E+00  0.000000000000E+00  0.000000000000E+00
  0.000000000000E+00  0.000000000000E+00  0.000000000000E+00  0.000000000000E+00
  0.000000000000E+00  0.000000000000E+00  0.000000000000E+00  0.000000000000E+00
  0.000000000000E+00  0.000000000000E+00  0.000000000000E+00  0.000000000000E+00
  0.000000000000E+00  0.000000000000E+00  0.000000000000E+00  0.000000000000E+00
  0.000000000000E+00  0.000000000000E+00  0.000000000000E+00  0.000000000000E+00
  0.000000000000E+00
</data>
</radfunc>
</valence-charge>
<pseudocore-charge matching-radius="1.03367279436"
 number-of-continuous-derivatives="4">
<annotation model-charge-form="Teter function with specified parameters" />
<radfunc>
<data npts="290">
  6.377992512828E+00  6.377593962328E+00  6.376402557880E+00  6.374414875813E+00
  6.371651294465E+00  6.368017437022E+00  6.363386061682E+00  6.358082636052E+00
  6.352119371466E+00  6.345165085335E+00  6.337326184281E+00  6.328805558977E+00
  6.318507509544E+00  6.307751807747E+00  6.295063313265E+00  6.282390968739E+00
  6.267798103405E+00  6.253965318331E+00  6.238414281641E+00  6.220936437227E+00
  6.201299226396E+00  6.183861639422E+00  6.164731061629E+00  6.143748951723E+00
  6.120743144812E+00  6.095526942924E+00  6.067898203992E+00  6.045462630671E+00
  6.021448978683E+00  5.995753129438E+00  5.968265152661E+00  5.938869150463E+00
  5.907443127768E+00  5.873858895878E+00  5.837982016970E+00  5.799671798448E+00
  5.758781347322E+00  5.715157696097E+00  5.684478614797E+00  5.652465851840E+00
  5.619069912026E+00  5.584240317799E+00  5.547925685500E+00  5.510073814984E+00
  5.470631793821E+00  5.429546117385E+00  5.386762826180E+00  5.342227661819E+00
  5.295886243125E+00  5.247684263875E+00  5.197567713722E+00  5.145483123890E+00
  5.091377839206E+00  5.035200318058E+00  4.976900461810E+00  4.916429975164E+00
  4.853742758863E+00  4.788795336010E+00  4.721547313095E+00  4.651961876635E+00
  4.580006326051E+00  4.505652643069E+00  4.428878097558E+00  4.349665889235E+00
  4.268005824112E+00  4.183895023933E+00  4.097338666089E+00  4.053147411971E+00
  4.008350750679E+00  3.962951940383E+00  3.916954890418E+00  3.870364186829E+00
  3.823185118029E+00  3.775423700520E+00  3.727086704588E+00  3.678181679910E+00
  3.628716980990E+00  3.578701792336E+00  3.528146153281E+00  3.477060982360E+00
  3.425458101116E+00  3.373350257247E+00  3.320751146956E+00  3.267675436382E+00
  3.214138781977E+00  3.160157849701E+00  3.105750332862E+00  3.050934968471E+00
  2.995731551939E+00  2.940160949953E+00  2.884245111346E+00  2.828007075807E+00
  2.771470980212E+00  2.714662062418E+00  2.657606662308E+00  2.600332219886E+00
  2.542867270240E+00  2.485241435153E+00  2.427485411161E+00  2.369630953866E+00
  2.311710858284E+00  2.253758935043E+00  2.195809982231E+00  2.137899752697E+00
  2.080064916634E+00  2.022343019266E+00  1.964772433474E+00  1.907392307218E+00
  1.850242505622E+00  1.793363547611E+00  1.736796536993E+00  1.680583087936E+00
  1.624765244786E+00  1.569385396205E+00  1.514486183665E+00  1.460110404324E+00
  1.406300908400E+00  1.353100491155E+00  1.300551779664E+00  1.248697114600E+00
  1.197578427290E+00  1.147237112369E+00  1.097713896404E+00  1.049048702921E+00
  1.001280514309E+00  9.544472311651E-01  9.085855296713E-01  8.637307176751E-01
  8.199165901975E-01  7.771752851538E-01  7.355371401287E-01  6.950305511048E-01
  6.556818340938E-01  6.175150906685E-01  5.805520784390E-01  5.448120875514E-01
  5.103118243197E-01  4.770653031217E-01  4.450837477059E-01  4.143755030565E-01
  3.849459589566E-01  3.567974863670E-01  3.299293877063E-01  3.043378620651E-01
  2.800159863267E-01  2.569537130832E-01  2.351378861409E-01  2.145522742956E-01
  1.951776239249E-01  1.769917308006E-01  1.599695313588E-01  1.440832134816E-01
  1.293023466597E-01  1.155940311841E-01  1.029230658077E-01  9.125213308315E-02
  8.054200134893E-02  7.075174209998E-02  6.183896123852E-02  5.376004246778E-02
  4.647040086478E-02  3.992474445477E-02  3.407734141358E-02  2.888229035000E-02
  2.429379097326E-02  2.026641233565E-02  1.675535576180E-02  1.371670953935E-02
  1.110769245326E-02  8.886883302858E-03  7.014433648423E-03  5.452261194430E-03
  4.164221431192E-03  3.116255423597E-03  2.276511954230E-03  1.615442594438E-03
  1.105868686386E-03  7.230196653482E-04  4.445426267088E-04  2.504835370139E-04
  1.232409924537E-04  4.749392952520E-05  1.010517882756E-05  3.210743659641E-09
  8.044837824667E-06  2.686199987088E-05  5.069605156079E-05  7.522318778185E-05
  9.737476903903E-05  1.151563411582E-04  1.274690753532E-04  1.339371850927E-04
  1.347446070460E-04  1.304838703181E-04  1.220196306054E-04  1.103688268581E-04
  9.659884403323E-05  8.174445604413E-05  6.674369990177E-05  5.239221870230E-05
  3.931503151508E-05  2.795416583170E-05  1.857014481668E-05  1.125497604060E-05
  5.954055525145E-06  2.494290576476E-06  6.157609324515E-07  4.377672091328E-09
  3.232539634408E-07  1.240855443209E-06  2.454429379775E-06  3.707694537074E-06
  4.802278259258E-06  5.602882611251E-06  6.036616787227E-06  6.087320392053E-06
  5.785998255540E-06  5.198675356887E-06  4.413051443261E-06  3.525289184490E-06
  2.628116538996E-06  1.801181352182E-06  1.104289285652E-06  5.738154149233E-07
  2.222382174892E-07  4.043469323271E-08  2.125868079654E-09  6.969521511413E-08
  2.005319230530E-07  3.530793139638E-07  4.918880160333E-07  5.911655704006E-07
  6.365527225199E-07  6.251104095693E-07  5.637378785676E-07  4.664318319592E-07
  3.509161774656E-07  2.352089605824E-07  1.346462641306E-07  5.976316649198E-08
  1.526064277959E-08  9.327582370830E-11  0.000000000000E+00  0.000000000000E+00
  0.000000000000E+00  0.000000000000E+00  0.000000000000E+00  0.000000000000E+00
  0.000000000000E+00  0.000000000000E+00  0.000000000000E+00  0.000000000000E+00
  0.000000000000E+00  0.000000000000E+00  0.000000000000E+00  0.000000000000E+00
  0.000000000000E+00  0.000000000000E+00  0.000000000000E+00  0.000000000000E+00
  0.000000000000E+00  0.000000000000E+00  0.000000000000E+00  0.000000000000E+00
  0.000000000000E+00  0.000000000000E+00  0.000000000000E+00  0.000000000000E+00
  0.000000000000E+00  0.000000000000E+00  0.000000000000E+00  0.000000000000E+00
  0.000000000000E+00  0.000000000000E+00  0.000000000000E+00  0.000000000000E+00
  0.000000000000E+00  0.000000000000E+00  0.000000000000E+00  0.000000000000E+00
  0.000000000000E+00  0.000000000000E+00  0.000000000000E+00  0.000000000000E+00
  0.000000000000E+00  0.000000000000E+00  0.000000000000E+00  0.000000000000E+00
  0.000000000000E+00  0.000000000000E+00
</data>
</radfunc>
</pseudocore-charge>
<semilocal-potentials set="lj">
<slps n="3" l="s" j="0.5" rc="1.46089145447" eref="-0.511424058270">
<radfunc>
<data npts="290">
  3.126412468269E+01  3.125379522498E+01  3.122294430114E+01  3.117156527099E+01
  3.110031901976E+01  3.100696926618E+01  3.088853843016E+01  3.075366516094E+01
  3.060294971236E+01  3.042842858119E+01  3.023329077596E+01  3.002305990875E+01
  2.977154466731E+01  2.951180480035E+01  2.920919510481E+01  2.891099872473E+01
  2.857248677378E+01  2.825631741015E+01  2.790621889467E+01  2.751932418890E+01
  2.709270742508E+01  2.672083858943E+01  2.632017975101E+01  2.588928539085E+01
  2.542677697433E+01  2.493137225554E+01  2.440191776866E+01  2.398187939866E+01
  2.354178283961E+01  2.308135680259E+01  2.260041293392E+01  2.209885557544E+01
  2.157669151057E+01  2.103403954821E+01  2.047113978435E+01  1.988836237155E+01
  1.928621562015E+01  1.866535325143E+01  1.824143874731E+01  1.780983803901E+01
  1.737085974805E+01  1.692484436232E+01  1.647216447822E+01  1.601322489261E+01
  1.554846253510E+01  1.507834623134E+01  1.460337628787E+01  1.412408388882E+01
  1.364103029444E+01  1.315480583094E+01  1.266602866034E+01  1.217534331841E+01
  1.168341900742E+01  1.119094762994E+01  1.069864154833E+01  1.020723105397E+01
  9.717461529152E+00  9.230090284342E+00  8.745883053204E+00  8.265610128661E+00
  7.790042124694E+00  7.319945351373E+00  6.856076794858E+00  6.399178700145E+00
  5.949972762596E+00  5.509153945103E+00  5.077383951526E+00  4.865088277948E+00
  4.655284404160E+00  4.448042613275E+00  4.243429793821E+00  4.041509213836E+00
  3.842340295817E+00  3.645978393792E+00  3.452474573934E+00  3.261875400279E+00
  3.074222727261E+00  2.889553500966E+00  2.707899571100E+00  2.529287515920E+00
  2.353738482462E+00  2.181268044591E+00  2.011886081557E+00  1.845596679859E+00
  1.682398061370E+00  1.522282540767E+00  1.365236515414E+00  1.211240490884E+00
  1.060269145386E+00  9.122914362484E-01  7.672707516915E-01  6.251651108613E-01
  4.859274150257E-01  3.495057526344E-01  2.158437604155E-01  8.488104255150E-02
 -4.344635063267E-02 -1.692053836790E-01 -2.924654364605E-01 -4.132976447504E-01
 -5.317741823955E-01 -6.479674876258E-01 -7.619494371786E-01 -8.737904731375E-01
 -9.835586887683E-01 -1.091318881102E+00 -1.197131579588E+00 -1.301052061801E+00
 -1.403129368908E+00 -1.503405335424E+00 -1.601913649549E+00 -1.698678962193E+00
 -1.793716064539E+00 -1.887029155589E+00 -1.978611222552E+00 -2.068443558065E+00
 -2.156495438960E+00 -2.242723991488E+00 -2.327074267408E+00 -2.409479554038E+00
 -2.489861939007E+00 -2.568133146932E+00 -2.644195660401E+00 -2.717944131457E+00
 -2.789267082141E+00 -2.858048883762E+00 -2.924171994725E+00 -2.987519426150E+00
 -3.047977394070E+00 -3.105438107005E+00 -3.159802629307E+00 -3.210983754189E+00
 -3.258908816645E+00 -3.303522375577E+00 -3.344788696288E+00 -3.382693968511E+00
 -3.417248200231E+00 -3.448486732574E+00 -3.476471324612E+00 -3.501290758222E+00
 -3.523060911572E+00 -3.541924246062E+00 -3.558048646548E+00 -3.571625550788E+00
 -3.582867303348E+00 -3.592003674530E+00 -3.599277498025E+00 -3.604939403672E+00
 -3.609241654090E+00 -3.612431135743E+00 -3.614741604464E+00 -3.616385340607E+00
 -3.617544426701E+00 -3.618361917839E+00 -3.618933228423E+00 -3.619298105080E+00
 -3.619433590873E+00 -3.619248407202E+00 -3.618579183586E+00 -3.617188948857E+00