<?xml version="1.0" encoding="UTF-8" ?>
<psml version="1.1" energy_unit="hartree" length_unit="bohr"
 uuid="69ebbd50-53a0-11e8-7fe2-4a27bd0601f7"
 xmlns="http://esl.cecam.org/PSML/ns/1.1">
<provenance creator="ONCVPSP-3.3.0+psml-3.3.0-73 (fully-relativistic)"
 date="2018-05-09">
<annotation action="semilocal-pseudopotential-generation"
 action-cont="projectors-generation" />
<input-file name="oncvpsp-input">
<![CDATA[# atsym z nc nv iexc psfile
P 15 3 2 -116133 upf
# n l f
1 0 2.0
2 0 2.0
2 1 6.0
3 0 2.0
3 1 3.0
# lmax
2
# l rc ep ncon nbas qcut
0 1.45 0.0 4 9 6.2
1 1.55 0.0 4 9 6.6
2 1.7 0.05 4 9 6.6
# lloc lpopt rc5 dvloc0
4 5 1.45 0.0
# l nproj debl
0 2 3.0
1 2 2.5
2 2 2.0
# icmod fcfact rcfact
3 5.0 1.1
# epsh1 epsh2 depsh
-12.0 12.0 0.02
# rlmax drl
6.0 0.01
 0
]]>
</input-file>
</provenance>
<pseudo-atom-spec atomic-label="P" atomic-number="15" z-pseudo="5"
 flavor="Hamann&apos;s oncvpsp" relativity="dirac" spin-dft="no"
 core-corrections="yes">
<annotation pseudo-energy="-6.40171508547" />
<exchange-correlation>
<annotation oncvpsp-xc-code="-116133" oncvpsp-xc-type="libxc-interface" />
<libxc-info number-of-functionals="2">
<functional name="Perdew, Burke &amp; Ernzerhof SOL (GGA)" type="exchange"
 id="116" />
<functional name="Perdew, Burke &amp; Ernzerhof SOL (GGA)" type="correlation"
 id="133" />
</libxc-info>
</exchange-correlation>
<valence-configuration total-valence-charge="5">
<shell n="3" l="s" occupation="2" />
<shell n="3" l="p" occupation="3" />
</valence-configuration>
</pseudo-atom-spec>
<grid npts="457">
<annotation type="sampled from oncvpsp log grid"
 recipe="r(i:1..N) = r1*exp(a*(i-1)) + r=0; resampled"
 recipe-cont="r1: scale; a: step" scale="0.333333333333E-04"
 step="0.119285708653E-01" delta="0.500000000000E-02" rmax="44.2837637062" />
<grid-data>
  0.000000000000E+00  5.056785236402E-03  1.010053166746E-02  1.515240813643E-02
  2.017501934448E-02  2.530717669722E-02  3.062893508784E-02  3.576667430480E-02
  4.078159407628E-02  4.594828673528E-02  5.115568860978E-02  5.627791965710E-02
  6.191304089543E-02  6.730475112585E-02  7.316599957938E-02  7.859454159214E-02
  8.442585358759E-02  8.961444568504E-02  9.512191507908E-02  1.009678591341E-01
  1.071730796174E-01  1.124107279825E-01  1.179043451086E-01  1.236664404276E-01
  1.297101347195E-01  1.360491899885E-01  1.426980408012E-01  1.478970624059E-01
  1.532855037496E-01  1.588702660996E-01  1.646585021619E-01  1.706576252426E-01
  1.768753187418E-01  1.833195459948E-01  1.899985604706E-01  1.969209163432E-01
  2.040954794468E-01  2.115314386309E-01  2.166386536853E-01  2.218691773398E-01
  2.272259867575E-01  2.327121309818E-01  2.383307326722E-01  2.440849898819E-01
  2.499781778776E-01  2.560136510042E-01  2.621948445941E-01  2.685252769220E-01
  2.750085512080E-01  2.816483576683E-01  2.884484756159E-01  2.954127756112E-01
  3.025452216655E-01  3.098498734974E-01  3.173308888431E-01  3.249925258234E-01
  3.328391453668E-01  3.408752136926E-01  3.491053048520E-01  3.575341033323E-01
  3.661664067232E-01  3.750071284471E-01  3.840613005563E-01  3.933340765969E-01
  4.028307345423E-01  4.125566797971E-01  4.225174482741E-01  4.275876576534E-01
  4.327187095452E-01  4.379113340598E-01  4.431662700685E-01  4.484842653093E-01
  4.538660764930E-01  4.593124694110E-01  4.648242190439E-01  4.704021096724E-01
  4.760469349885E-01  4.817594982083E-01  4.875406121868E-01  4.933910995331E-01
  4.993117927275E-01  5.053035342402E-01  5.113671766511E-01  5.175035827709E-01
  5.237136257642E-01  5.299981892733E-01  5.363581675446E-01  5.427944655551E-01
  5.493079991418E-01  5.558996951315E-01  5.625704914731E-01  5.693213373708E-01
  5.761531934192E-01  5.830670317402E-01  5.900638361211E-01  5.971446021546E-01
  6.043103373804E-01  6.115620614290E-01  6.189008061661E-01  6.263276158401E-01
  6.338435472302E-01  6.414496697970E-01  6.491470658345E-01  6.569368306246E-01
  6.648200725921E-01  6.727979134632E-01  6.808714884247E-01  6.890419462858E-01
  6.973104496412E-01  7.056781750369E-01  7.141463131374E-01  7.227160688950E-01
  7.313886617218E-01  7.401653256624E-01  7.490473095704E-01  7.580358772852E-01
  7.671323078126E-01  7.763378955064E-01  7.856539502525E-01  7.950817976555E-01
  8.046227792274E-01  8.142782525781E-01  8.240495916090E-01  8.339381867083E-01
  8.439454449488E-01  8.540727902882E-01  8.643216637717E-01  8.746935237370E-01
  8.851898460218E-01  8.958121241741E-01  9.065618696641E-01  9.174406121001E-01
  9.284498994453E-01  9.395912982387E-01  9.508663938175E-01  9.622767905433E-01
  9.738241120299E-01  9.855100013742E-01  9.973361213907E-01  1.009304154847E+00
  1.021415804706E+00  1.033672794362E+00  1.046076867894E+00  1.058629790309E+00
  1.071333347793E+00  1.084189347966E+00  1.097199620142E+00  1.110366015584E+00
  1.123690407771E+00  1.137174692664E+00  1.150820788976E+00  1.164630638444E+00
  1.178606206105E+00  1.192749480578E+00  1.207062474345E+00  1.221547224037E+00
  1.236205790726E+00  1.251040260214E+00  1.266052743337E+00  1.281245376257E+00
  1.296620320772E+00  1.312179764621E+00  1.327925921797E+00  1.343861032858E+00
  1.359987365253E+00  1.376307213636E+00  1.392822900199E+00  1.409536775002E+00
  1.426451216302E+00  1.443568630897E+00  1.460891454468E+00  1.478422151922E+00
  1.496163217745E+00  1.514117176358E+00  1.532286582474E+00  1.550674021464E+00
  1.569282109721E+00  1.588113495038E+00  1.607170856978E+00  1.626456907262E+00
  1.645974390149E+00  1.665726082831E+00  1.685714795825E+00  1.705943373375E+00
  1.726414693855E+00  1.747131670182E+00  1.768097250224E+00  1.789314417227E+00
  1.810786190233E+00  1.832515624516E+00  1.854505812010E+00  1.876759881754E+00
  1.899281000335E+00  1.922072372339E+00  1.945137240808E+00  1.968478887697E+00
  1.992100634350E+00  2.016005841962E+00  2.040197912065E+00  2.064680287010E+00
  2.089456450454E+00  2.114529927860E+00  2.139904286994E+00  2.165583138438E+00
  2.191570136099E+00  2.217868977732E+00  2.244483405465E+00  2.271417206331E+00
  2.298674212807E+00  2.326258303360E+00  2.354173403001E+00  2.382423483837E+00
  2.411012565643E+00  2.439944716430E+00  2.469224053028E+00  2.498854741664E+00
  2.528840998564E+00  2.559187090547E+00  2.589897335633E+00  2.620976103661E+00
  2.652427816905E+00  2.684256950708E+00  2.716468034116E+00  2.749065650526E+00
  2.782054438332E+00  2.815439091592E+00  2.849224360691E+00  2.883415053019E+00
  2.918016033655E+00  2.953032226059E+00  2.988468612772E+00  3.024330236125E+00
  3.060622198959E+00  3.097349665346E+00  3.134517861330E+00  3.172132075666E+00
  3.210197660574E+00  3.248720032501E+00  3.287704672891E+00  3.327157128966E+00
  3.367083014514E+00  3.407488010688E+00  3.448377866816E+00  3.489758401218E+00
  3.531635502032E+00  3.574015128057E+00  3.616903309594E+00  3.660306149309E+00
  3.704229823100E+00  3.748680580978E+00  3.793664747949E+00  3.839188724925E+00
  3.885258989624E+00  3.931882097499E+00  3.979064682669E+00  4.026813458861E+00
  4.075135220368E+00  4.124036843012E+00  4.173525285128E+00  4.223607588550E+00
  4.274290879612E+00  4.325582370168E+00  4.377489358610E+00  4.430019230913E+00
  4.483179461684E+00  4.536977615224E+00  4.591421346607E+00  4.646518402766E+00
  4.702276623599E+00  4.758703943083E+00  4.815808390400E+00  4.873598091084E+00
  4.932081268177E+00  4.991266243395E+00  5.051161438316E+00  5.111775375576E+00
  5.173116680083E+00  5.235194080244E+00  5.298016409207E+00  5.361592606117E+00
  5.425931717391E+00  5.491042897999E+00  5.556935412775E+00  5.623618637729E+00
  5.691102061381E+00  5.759395286118E+00  5.828508029551E+00  5.898450125906E+00
  5.969231527417E+00  6.040862305746E+00  6.113352653415E+00  6.186712885256E+00
  6.260953439879E+00  6.336084881157E+00  6.412117899731E+00  6.489063314528E+00
  6.566932074303E+00  6.645735259194E+00  6.725484082304E+00  6.806189891292E+00
  6.887864169988E+00  6.970518540027E+00  7.054164762508E+00  7.138814739658E+00
  7.224480516534E+00  7.311174282732E+00  7.398908374125E+00  7.487695274614E+00
  7.577547617910E+00  7.668478189325E+00  7.760499927597E+00  7.853625926728E+00
  7.947869437849E+00  8.043243871103E+00  8.139762797556E+00  8.237439951127E+00
  8.336289230540E+00  8.436324701307E+00  8.537560597722E+00  8.640011324895E+00
  8.743691460794E+00  8.848615758323E+00  8.954799147423E+00  9.062256737192E+00
  9.171003818039E+00  9.281055863855E+00  9.392428534221E+00  9.505137676632E+00
  9.619199328751E+00  9.734629720697E+00  9.851445277345E+00  9.969662620673E+00
  1.008929857212E+01  1.021037015499E+01  1.033289459685E+01  1.045688933201E+01
  1.058237200399E+01  1.070936046804E+01  1.083787279366E+01  1.096792726718E+01
  1.109954239439E+01  1.123273690312E+01  1.136752974596E+01  1.150394010291E+01
  1.164198738414E+01  1.178169123275E+01  1.192307152755E+01  1.206614838588E+01
  1.221094216651E+01  1.235747347251E+01  1.250576315418E+01  1.265583231203E+01
  1.280770229977E+01  1.296139472737E+01  1.311693146410E+01  1.327433464166E+01
  1.343362665736E+01  1.359483017725E+01  1.375796813938E+01  1.392306375705E+01
  1.409014052214E+01  1.425922220840E+01  1.443033287490E+01  1.460349686940E+01
  1.477873883184E+01  1.495608369782E+01  1.513555670219E+01  1.531718338262E+01
  1.550098958321E+01  1.568700145821E+01  1.587524547571E+01  1.606574842141E+01
  1.625853740247E+01  1.645363985130E+01  1.665108352952E+01  1.685089653187E+01
  1.705310729025E+01  1.725774457774E+01  1.746483751267E+01  1.767441556282E+01
  1.788650854958E+01  1.810114665217E+01  1.831836041200E+01  1.853818073694E+01
  1.876063890578E+01  1.898576657265E+01  1.921359577152E+01  1.944415892078E+01
  1.967748882783E+01  1.991361869377E+01  2.015258211809E+01  2.039441310351E+01
  2.063914606075E+01  2.088681581348E+01  2.113745760324E+01  2.139110709448E+01
  2.164780037961E+01  2.190757398417E+01  2.217046487198E+01  2.243651045044E+01
  2.270574857585E+01  2.297821755876E+01  2.325395616946E+01  2.353300364350E+01
  2.381539968722E+01  2.410118448347E+01  2.439039869727E+01  2.468308348163E+01
  2.497928048341E+01  2.527903184922E+01  2.558238023141E+01  2.588936879418E+01
  2.620004121971E+01  2.651444171435E+01  2.683261501492E+01  2.715460639510E+01
  2.748046167184E+01  2.781022721190E+01  2.814394993845E+01  2.848167733771E+01
  2.882345746576E+01  2.916933895535E+01  2.951937102281E+01  2.987360347509E+01
  3.023208671679E+01  3.059487175739E+01  3.096201021848E+01  3.133355434110E+01
  3.170955699319E+01  3.209007167711E+01  3.247515253724E+01  3.286485436768E+01
  3.325923262010E+01  3.365834341154E+01  3.406224353248E+01  3.447099045487E+01
  3.488464234032E+01  3.530325804841E+01  3.572689714499E+01  3.615561991073E+01
  3.658948734966E+01  3.702856119785E+01  3.747290393223E+01  3.792257877942E+01
  3.837764972477E+01  3.883818152147E+01  3.930423969972E+01  3.977589057612E+01
  4.025320126303E+01  4.073623967819E+01  4.122507455433E+01  4.171977544898E+01
  4.222041275437E+01  4.272705770742E+01  4.323978239991E+01  4.375865978871E+01
  4.428376370617E+01
</grid-data>
</grid>
<valence-charge total-charge="5" is-unscreening-charge="yes"
 rescaled-to-z-pseudo="no">
<radfunc>
<data npts="457">
  1.475793949747E-02  1.478714355818E-02  1.487446435543E-02  1.502021252472E-02
  1.522299202785E-02  1.548987316657E-02  1.583041830709E-02  1.622093558065E-02
  1.666075093831E-02  1.717461116330E-02  1.775507028635E-02  1.838749783296E-02
  1.915392734685E-02  1.995685307961E-02  2.090727818979E-02  2.185998299665E-02
  2.296141529938E-02  2.400979413136E-02  2.519344227673E-02  2.653015809693E-02
  2.804017268932E-02  2.938832463047E-02  3.087529867381E-02  3.251579897201E-02
  3.432616902060E-02  3.632458964242E-02  3.853130323223E-02  4.033650583445E-02
  4.228197219610E-02  4.437906486988E-02  4.664012935976E-02  4.907858604214E-02
  5.170903099898E-02  5.454734649235E-02  5.761082180384E-02  6.091828512749E-02
  6.449024713288E-02  6.834905669285E-02  7.109289551013E-02  7.398275032611E-02
  7.702682669030E-02  8.023381328138E-02  8.361290905587E-02  8.717385127058E-02
  9.092694425316E-02  9.488308875720E-02  9.905381169454E-02  1.034512959875E-01
  1.080884102272E-01  1.129787377590E-01  1.181366047492E-01  1.235771067034E-01
  1.293161328282E-01  1.353703875341E-01  1.417574082820E-01  1.484955788776E-01
  1.556041372158E-01  1.631031763759E-01  1.710136378744E-01  1.793572957879E-01
  1.881567303858E-01  1.974352898446E-01  2.072170385768E-01  2.175266906896E-01
  2.283895271000E-01  2.398312948774E-01  2.518780874641E-01  2.581365829205E-01
  2.645562045325E-01  2.711402454714E-01  2.778919903782E-01  2.848147090743E-01
  2.919116499051E-01  2.991860327107E-01  3.066410414195E-01  3.142798162614E-01
  3.221054455962E-01  3.301209573533E-01  3.383293100791E-01  3.467333835860E-01
  3.553359691988E-01  3.641397595886E-01  3.731473381881E-01  3.823611681741E-01
  3.917835810044E-01  4.014167644900E-01  4.112627503827E-01  4.213234014483E-01
  4.316003979973E-01  4.420952238321E-01  4.528091515694E-01  4.637432272850E-01
  4.748982544242E-01  4.862747769113E-01  4.978730613867E-01  5.096930784895E-01
  5.217344831003E-01  5.339965934494E-01  5.464783689942E-01  5.591783869621E-01
  5.720948174579E-01  5.852253970334E-01  5.985674006229E-01  6.121176117548E-01
  6.258722909652E-01  6.398271423551E-01  6.539772782577E-01  6.683171820119E-01
  6.828406688786E-01  6.975408451769E-01  7.124100657765E-01  7.274398901390E-01
  7.426210371759E-01  7.579433392650E-01  7.733956958581E-01  7.889660272007E-01
  8.046412287868E-01  8.204071272718E-01  8.362484386710E-01  8.521487297719E-01
  8.680903837881E-01  8.840545713673E-01  9.000212281441E-01  9.159690400812E-01
  9.318754378792E-01  9.477166017341E-01  9.634674776917E-01  9.791018067757E-01
  9.945921679448E-01  1.009910035768E+00  1.025025853478E+00  1.039909121802E+00
  1.054528503596E+00  1.068851943979E+00  1.082846805177E+00  1.096480014835E+00
  1.109718226067E+00  1.122527986973E+00  1.134875916867E+00  1.146728885989E+00
  1.158054195025E+00  1.168819750469E+00  1.178994231607E+00  1.188547244844E+00
  1.197449461200E+00  1.205672733103E+00  1.213190187136E+00  1.219976290170E+00
  1.226006887332E+00  1.231259211510E+00  1.235711865576E+00  1.239344780181E+00
  1.242139151741E+00  1.244077367120E+00  1.245142923317E+00  1.245320352136E+00
  1.244595161282E+00  1.242953804325E+00  1.240383692500E+00  1.236873261169E+00
  1.232412102845E+00  1.226991176880E+00  1.220603103214E+00  1.213242543901E+00
  1.204906671613E+00  1.195595718976E+00  1.185313596767E+00  1.174068562831E+00
  1.161873917539E+00  1.148748696068E+00  1.134718323270E+00  1.119814867781E+00
  1.104075829675E+00  1.087542062404E+00  1.070257613821E+00  1.052270357576E+00
  1.033631629781E+00  1.014394873065E+00  9.946135111892E-01  9.743404316756E-01
  9.536282009730E-01  9.325287416975E-01  9.110932179763E-01  8.893718960944E-01
  8.674140159516E-01  8.452676706230E-01  8.229796942749E-01  8.005955587005E-01
  7.781592786790E-01  7.557133263212E-01  7.332985545083E-01  7.109541294822E-01
  6.887174725899E-01  6.666242111330E-01  6.447081382213E-01  6.230011814796E-01
  6.015333804108E-01  5.803328721723E-01  5.594258854848E-01  5.388367423531E-01
  5.185878672488E-01  4.986998033724E-01  4.791912355901E-01  4.600790196216E-01
  4.413782170339E-01  4.231021355894E-01  4.052623744853E-01  3.878688740166E-01
  3.709299691947E-01  3.544524468565E-01  3.384416058021E-01  3.229013195097E-01
  3.078341009926E-01  2.932411693345E-01  2.791225175602E-01  2.654769813763E-01
  2.523023084379E-01  2.395952277776E-01  2.273515190598E-01  2.155660813464E-01
  2.042330010807E-01  1.933456190217E-01  1.828965958822E-01  1.728779764480E-01
  1.632812519797E-01  1.540974207196E-01  1.453170463512E-01  1.369303142779E-01
  1.289270856119E-01  1.212969487819E-01  1.140292686959E-01  1.071132333983E-01
  1.005378981980E-01  9.429222724696E-02  8.836513257358E-02  8.274551058337E-02
  7.742227605836E-02  7.238439369591E-02  6.762090724012E-02  6.312096626806E-02
  5.887385070182E-02  5.486899312363E-02  5.109599897733E-02  4.754466474276E-02
  4.420499417274E-02  4.106721268321E-02  3.812177998721E-02  3.535940106263E-02
  3.277103554126E-02  3.034790560465E-02  2.808150246875E-02  2.596359153618E-02
  2.398621629148E-02  2.214170101126E-02  2.042265235815E-02  1.882195992465E-02
  1.733279579081E-02  1.594861315758E-02  1.466314411680E-02  1.347039661741E-02
  1.236465068737E-02  1.134045397025E-02  1.039261663560E-02  9.516205722076E-03
  8.706538972327E-03  7.959178218421E-03  7.269922376185E-03  6.634800106120E-03
  6.050062197488E-03  5.512173730729E-03  5.017806071562E-03  4.563828747967E-03
  4.147301258701E-03  3.765464859206E-03  3.415734367672E-03  3.095690030743E-03
  2.803069484925E-03  2.535759846196E-03  2.291789956776E-03  2.069322814405E-03
  1.866648206000E-03  1.682175564086E-03  1.514427061152E-03  1.362030953888E-03
  1.223715186345E-03  1.098301258273E-03  9.846983623656E-04  8.818977918209E-04
  7.889676175476E-04  7.050476324892E-04  6.293445589350E-04  5.611275132891E-04
  4.997237216104E-04  4.445144782802E-04  3.949313394022E-04  3.504525419715E-04
  3.105996394544E-04  2.749343441764E-04  2.430555668104E-04  2.145966432669E-04
  1.892227393996E-04  1.666284241338E-04  1.465354018807E-04  1.286903954131E-04
  1.128631707177E-04  9.884469570894E-05  8.644542506589E-05  7.549370383813E-05
  6.583428284161E-05  5.732693923473E-05  4.984519601794E-05  4.327513453688E-05
  3.751429438723E-05  3.247065541871E-05  2.806169681554E-05  2.421352849256E-05
  2.086009029107E-05  1.794241468698E-05  1.540794893914E-05  1.320993280745E-05
  1.130682816177E-05  9.661796984127E-06  8.242224439877E-06  7.019283859790E-06
  5.967540634727E-06  5.064592179207E-06  4.290741269793E-06  3.628700209543E-06
  3.063323411006E-06  2.581366127599E-06  2.171267196768E-06  1.822953788028E-06
  1.527666274903E-06  1.277801471630E-06  1.066772593305E-06  8.888844116688E-07
  7.392221878810E-07  6.135530682304E-07  5.082387286930E-07  4.201581494727E-07
  3.466394910622E-07  2.854001289248E-07  2.344939845974E-07  1.922653668844E-07
  1.573086078936E-07  1.284328450506E-07  1.046313620075E-07  8.505495867934E-08
  6.898887363513E-08  5.583283090852E-08  4.508382815966E-08  3.632132419845E-08
  2.919452137532E-08  2.341147245925E-08  1.872977256216E-08  1.494862464118E-08
  1.190209232094E-08  9.453376429367E-09  7.489971928453E-09  5.919580037657E-09
  4.666666473888E-09  3.669571043350E-09  2.878086482089E-09  2.251435609920E-09
  1.756585682456E-09  1.366847434636E-09  1.060713832681E-09  8.209001065279E-10
  6.335523285572E-10  4.875967349027E-10  3.742062419152E-10  2.863642732986E-10
  2.185091559815E-10  1.662450304478E-10  1.261075126897E-10  9.537429242159E-11
  7.191250210625E-11  5.405608471178E-11  4.050756106402E-11  3.025958187216E-11
  2.253247267411E-11  1.672466617551E-11  1.237348663958E-11  9.124223177060E-12
  6.705818519164E-12  4.911820446418E-12  3.585505863481E-12  2.608302225673E-12
  1.890805834075E-12  1.365838341454E-12  9.830974694223E-13  7.050503021735E-13
  5.037916609151E-13  3.586493561562E-13  2.543653612474E-13  1.797194580817E-13
  1.264915706503E-13  8.868237535879E-14  6.193012264067E-14  4.307594825976E-14
  2.984112391388E-14  2.058836272316E-14  1.414599092076E-14  9.678949625945E-15
  6.594538866080E-15  4.473834310811E-15  3.021983777992E-15  2.032349572293E-15
  1.360741843359E-15  9.069865113928E-16  6.017971041491E-16  3.974656927492E-16
  2.612915035285E-16  1.709631333564E-16  1.113284803602E-16  7.214585798386E-17
  4.652560527837E-17  2.985532341375E-17  1.906222091655E-17  1.210930193720E-17
  7.652947759907E-18  0.000000000000E+00  0.000000000000E+00  0.000000000000E+00
  0.000000000000E+00  0.000000000000E+00  0.000000000000E+00  0.000000000000E+00
  0.000000000000E+00  0.000000000000E+00  0.000000000000E+00  0.000000000000E+00
  0.000000000000E+00  0.000000000000E+00  0.000000000000E+00  0.000000000000E+00
  0.000000000000E+00  0.000000000000E+00  0.000000000000E+00  0.000000000000E+00
  0.000000000000E+00  0.000000000000E+00  0.000000000000E+00  0.000000000000E+00
  0.000000000000E+00  0.000000000000E+00  0.000000000000E+00  0.000000000000E+00
  0.000000000000E+00  0.000000000000E+00  0.000000000000E+00  0.000000000000E+00
  0.000000000000E+00  0.000000000000E+00  0.000000000000E+00  0.000000000000E+00
  0.000000000000E+00
</data>
</radfunc>
</valence-charge>
<pseudocore-charge matching-radius="1.03367279436"
 number-of-continuous-derivatives="4">
<annotation model-charge-form="Teter function with specified parameters" />
<radfunc>
<data npts="290">
  6.377992512828E+00  6.377593962328E+00  6.376402557880E+00  6.374414875813E+00
  6.371651294465E+00  6.368017437022E+00  6.363386061682E+00  6.358082636052E+00
  6.352119371466E+00  6.345165085335E+00  6.337326184281E+00  6.328805558977E+00
  6.318507509544E+00  6.307751807747E+00  6.295063313265E+00  6.282390968739E+00
  6.267798103405E+00  6.253965318331E+00  6.238414281641E+00  6.220936437227E+00
  6.201299226396E+00  6.183861639422E+00  6.164731061629E+00  6.143748951723E+00
  6.120743144812E+00  6.095526942924E+00  6.067898203992E+00  6.045462630671E+00
  6.021448978683E+00  5.995753129438E+00  5.968265152661E+00  5.938869150463E+00
  5.907443127768E+00  5.873858895878E+00  5.837982016970E+00  5.799671798448E+00
  5.758781347322E+00  5.715157696097E+00  5.684478614797E+00  5.652465851840E+00
  5.619069912026E+00  5.584240317799E+00  5.547925685500E+00  5.510073814984E+00
  5.470631793821E+00  5.429546117385E+00  5.386762826180E+00  5.342227661819E+00
  5.295886243125E+00  5.247684263875E+00  5.197567713722E+00  5.145483123890E+00
  5.091377839206E+00  5.035200318058E+00  4.976900461810E+00  4.916429975164E+00
  4.853742758863E+00  4.788795336010E+00  4.721547313095E+00  4.651961876635E+00
  4.580006326051E+00  4.505652643069E+00  4.428878097558E+00  4.349665889235E+00
  4.268005824112E+00  4.183895023933E+00  4.097338666089E+00  4.053147411971E+00
  4.008350750679E+00  3.962951940383E+00  3.916954890418E+00  3.870364186829E+00
  3.823185118029E+00  3.775423700520E+00  3.727086704588E+00  3.678181679910E+00
  3.628716980990E+00  3.578701792336E+00  3.528146153281E+00  3.477060982360E+00
  3.425458101116E+00  3.373350257247E+00  3.320751146956E+00  3.267675436382E+00
  3.214138781977E+00  3.160157849701E+00  3.105750332862E+00  3.050934968471E+00
  2.995731551939E+00  2.940160949953E+00  2.884245111346E+00  2.828007075807E+00
  2.771470980212E+00  2.714662062418E+00  2.657606662308E+00  2.600332219886E+00
  2.542867270240E+00  2.485241435153E+00  2.427485411161E+00  2.369630953866E+00
  2.311710858284E+00  2.253758935043E+00  2.195809982231E+00  2.137899752697E+00
  2.080064916634E+00  2.022343019266E+00  1.964772433474E+00  1.907392307218E+00
  1.850242505622E+00  1.793363547611E+00  1.736796536993E+00  1.680583087936E+00
  1.624765244786E+00  1.569385396205E+00  1.514486183665E+00  1.460110404324E+00
  1.406300908400E+00  1.353100491155E+00  1.300551779664E+00  1.248697114600E+00
  1.197578427290E+00  1.147237112369E+00  1.097713896404E+00  1.049048702921E+00
  1.001280514309E+00  9.544472311651E-01  9.085855296713E-01  8.637307176751E-01
  8.199165901975E-01  7.771752851538E-01  7.355371401287E-01  6.950305511048E-01
  6.556818340938E-01  6.175150906685E-01  5.805520784390E-01  5.448120875514E-01
  5.103118243197E-01  4.770653031217E-01  4.450837477059E-01  4.143755030565E-01
  3.849459589566E-01  3.567974863670E-01  3.299293877063E-01  3.043378620651E-01
  2.800159863267E-01  2.569537130832E-01  2.351378861409E-01  2.145522742956E-01
  1.951776239249E-01  1.769917308006E-01  1.599695313588E-01  1.440832134816E-01
  1.293023466597E-01  1.155940311841E-01  1.029230658077E-01  9.125213308315E-02
  8.054200134893E-02  7.075174209998E-02  6.183896123852E-02  5.376004246778E-02
  4.647040086478E-02  3.992474445477E-02  3.407734141358E-02  2.888229035000E-02
  2.429379097326E-02  2.026641233565E-02  1.675535576180E-02  1.371670953935E-02
  1.110769245326E-02  8.886883302858E-03  7.014433648423E-03  5.452261194430E-03
  4.164221431192E-03  3.116255423597E-03  2.276511954230E-03  1.615442594438E-03
  1.105868686386E-03  7.230196653482E-04  4.445426267088E-04  2.504835370139E-04
  1.232409924537E-04  4.749392952520E-05  1.010517882756E-05  3.210743659641E-09
  8.044837824667E-06  2.686199987088E-05  5.069605156079E-05  7.522318778185E-05
  9.737476903903E-05  1.151563411582E-04  1.274690753532E-04  1.339371850927E-04
  1.347446070460E-04  1.304838703181E-04  1.220196306054E-04  1.103688268581E-04
  9.659884403323E-05  8.174445604413E-05  6.674369990177E-05  5.239221870230E-05
  3.931503151508E-05  2.795416583170E-05  1.857014481668E-05  1.125497604060E-05
  5.954055525145E-06  2.494290576476E-06  6.157609324515E-07  4.377672091328E-09
  3.232539634408E-07  1.240855443209E-06  2.454429379775E-06  3.707694537074E-06
  4.802278259258E-06  5.602882611251E-06  6.036616787227E-06  6.087320392053E-06
  5.785998255540E-06  5.198675356887E-06  4.413051443261E-06  3.525289184490E-06
  2.628116538996E-06  1.801181352182E-06  1.104289285652E-06  5.738154149233E-07
  2.222382174892E-07  4.043469323271E-08  2.125868079654E-09  6.969521511413E-08
  2.005319230530E-07  3.530793139638E-07  4.918880160333E-07  5.911655704006E-07
  6.365527225199E-07  6.251104095693E-07  5.637378785676E-07  4.664318319592E-07
  3.509161774656E-07  2.352089605824E-07  1.346462641306E-07  5.976316649198E-08
  1.526064277959E-08  9.327582370830E-11  0.000000000000E+00  0.000000000000E+00
  0.000000000000E+00  0.000000000000E+00  0.000000000000E+00  0.000000000000E+00
  0.000000000000E+00  0.000000000000E+00  0.000000000000E+00  0.000000000000E+00
  0.000000000000E+00  0.000000000000E+00  0.000000000000E+00  0.000000000000E+00
  0.000000000000E+00  0.000000000000E+00  0.000000000000E+00  0.000000000000E+00
  0.000000000000E+00  0.000000000000E+00  0.000000000000E+00  0.000000000000E+00
  0.000000000000E+00  0.000000000000E+00  0.000000000000E+00  0.000000000000E+00
  0.000000000000E+00  0.000000000000E+00  0.000000000000E+00  0.000000000000E+00
  0.000000000000E+00  0.000000000000E+00  0.000000000000E+00  0.000000000000E+00
  0.000000000000E+00  0.000000000000E+00  0.000000000000E+00  0.000000000000E+00
  0.000000000000E+00  0.000000000000E+00  0.000000000000E+00  0.000000000000E+00
  0.000000000000E+00  0.000000000000E+00  0.000000000000E+00  0.000000000000E+00
  0.000000000000E+00  0.000000000000E+00
</data>
</radfunc>
</pseudocore-charge>
<semilocal-potentials set="lj">
<slps n="3" l="s" j="0.5" rc="1.46089145447" eref="-0.511424058270">
<radfunc>
<data npts="290">
  3.126412468910E+01  3.125379523092E+01  3.122294430703E+01  3.117156527686E+01
  3.110031902561E+01  3.100696927203E+01  3.088853843598E+01  3.075366516672E+01
  3.060294971811E+01  3.042842858690E+01  3.023329078163E+01  3.002305991437E+01
  2.977154467287E+01  2.951180480586E+01  2.920919511026E+01  2.891099873010E+01
  2.857248677909E+01  2.825631741538E+01  2.790621889983E+01  2.751932419397E+01
  2.709270743005E+01  2.672083859433E+01  2.632017975582E+01  2.588928539557E+01
  2.542677697894E+01  2.493137226005E+01  2.440191777305E+01  2.398187940296E+01
  2.354178284382E+01  2.308135680670E+01  2.260041293793E+01  2.209885557934E+01
  2.157669151436E+01  2.103403955189E+01  2.047113978790E+01  1.988836237498E+01
  1.928621562345E+01  1.866535325460E+01  1.824143875040E+01  1.780983804200E+01
  1.737085975095E+01  1.692484436512E+01  1.647216448093E+01  1.601322489523E+01
  1.554846253762E+01  1.507834623376E+01  1.460337629020E+01  1.412408389105E+01
  1.364103029657E+01  1.315480583296E+01  1.266602866227E+01  1.217534332024E+01
  1.168341900915E+01  1.119094763157E+01  1.069864154987E+01  1.020723105541E+01
  9.717461530499E+00  9.230090285596E+00  8.745883054367E+00  8.265610129735E+00
  7.790042125681E+00  7.319945352277E+00  6.856076795681E+00  6.399178700890E+00
  5.949972763266E+00  5.509153945703E+00  5.077383952058E+00  4.865088278449E+00
  4.655284404630E+00  4.448042613715E+00  4.243429794231E+00  4.041509214219E+00
  3.842340296174E+00  3.645978394123E+00  3.452474574241E+00  3.261875400562E+00
  3.074222727522E+00  2.889553501206E+00  2.707899571320E+00  2.529287516122E+00
  2.353738482646E+00  2.181268044759E+00  2.011886081709E+00  1.845596679997E+00
  1.682398061494E+00  1.522282540880E+00  1.365236515515E+00  1.211240490976E+00
  1.060269145469E+00  9.122914363224E-01  7.672707517583E-01  6.251651109215E-01
  4.859274150801E-01  3.495057526838E-01  2.158437604605E-01  8.488104259279E-02
 -4.344635059452E-02 -1.692053836435E-01 -2.924654364273E-01 -4.132976447191E-01
 -5.317741823657E-01 -6.479674875974E-01 -7.619494371513E-01 -8.737904731114E-01
 -9.835586887431E-01 -1.091318881078E+00 -1.197131579565E+00 -1.301052061779E+00
 -1.403129368887E+00 -1.503405335405E+00 -1.601913649533E+00 -1.698678962179E+00
 -1.793716064527E+00 -1.887029155580E+00 -1.978611222546E+00 -2.068443558063E+00
 -2.156495438962E+00 -2.242723991494E+00 -2.327074267419E+00 -2.409479554054E+00
 -2.489861939028E+00 -2.568133146958E+00 -2.644195660432E+00 -2.717944131495E+00
 -2.789267082183E+00 -2.858048883810E+00 -2.924171994778E+00 -2.987519426209E+00
 -3.047977394133E+00 -3.105438107073E+00 -3.159802629379E+00 -3.210983754264E+00
 -3.258908816723E+00 -3.303522375656E+00 -3.344788696368E+00 -3.382693968591E+00
 -3.417248200311E+00 -3.448486732651E+00 -3.476471324687E+00 -3.501290758293E+00
 -3.523060911639E+00 -3.541924246124E+00 -3.558048646604E+00 -3.571625550837E+00
 -3.582867303390E+00 -3.592003674564E+00 -3.599277498052E+00 -3.604939403690E+00
 -3.609241654100E+00 -3.612431135745E+00 -3.614741604459E+00 -3.616385340594E+00
 -3.617544426683E+00 -3.618361917814E+00 -3.618933228394E+00 -3.619298105048E+00
 -3.619433590839E+00 -3.619248407166E+00 -3.618579183550E+00 -3.617188948822E+00