Ga    ONCVPSP-3.3.0  r_core=   1.85767   1.81388   2.62545
31.0000      3.0000      180430    zatom,zion,pspd
8 -116133   2     4   600     0    pspcod,pspxc,lmax,lloc,mmax,r2well
5.99000000  0.50000000  0.00000000    rchrg fchrg qchrg
2     4     4     0    nproj
3     1           extension_switch
4     4     0    nprojso
0                         6.7477794332143D-01  6.4363635851682D+00
1  0.0000000000000D+00 -3.2012281714344D-11  1.5417972454301D-11
2  1.0000000000000D-02 -1.1377964334419D-02  2.5637267081302D-02
3  2.0000000000000D-02 -2.2778391031396D-02  5.1284360247292D-02
4  3.0000000000000D-02 -3.4223470436765D-02  7.6950962548405D-02
5  4.0000000000000D-02 -4.5734850468396D-02  1.0264647175839D-01
6  5.0000000000000D-02 -5.7333369407816D-02  1.2837985971161D-01
7  6.0000000000000D-02 -6.9038793475949D-02  1.5415953400024D-01
8  7.0000000000000D-02 -8.0869560750145D-02  1.7999320279986D-01
9  8.0000000000000D-02 -9.2842532947651D-02  2.0588774357670D-01
10  9.0000000000000D-02 -1.0497275656099D-01  2.3184907641041D-01
11  1.0000000000000D-01 -1.1727323478341D-01  2.5788204264371D-01
12  1.1000000000000D-01 -1.2975471160804D-01  2.8399028954392D-01
13  1.2000000000000D-01 -1.4242546942261D-01  3.1017616163151D-01
14  1.3000000000000D-01 -1.5529114135310D-01  3.3644059929804D-01
15  1.4000000000000D-01 -1.6835453953453D-01  3.6278304529965D-01
16  1.5000000000000D-01 -1.8161550040615D-01  3.8920135967305D-01
17  1.6000000000000D-01 -1.9507074804079D-01  4.1569174357912D-01
18  1.7000000000000D-01 -2.0871377642623D-01  4.4224867253499D-01
19  1.8000000000000D-01 -2.2253475151838D-01  4.6886483944797D-01
20  1.9000000000000D-01 -2.3652043378469D-01  4.9553110781631D-01
21  2.0000000000000D-01 -2.5065412184942D-01  5.2223647541014D-01
22  2.1000000000000D-01 -2.6491561774348D-01  5.4896804869348D-01
23  2.2000000000000D-01 -2.7928121414800D-01  5.7571102819385D-01
24  2.3000000000000D-01 -2.9372370390616D-01  6.0244870497057D-01
25  2.4000000000000D-01 -3.0821241196008D-01  6.2916246827625D-01
26  2.5000000000000D-01 -3.2271324975089D-01  6.5583182444915D-01
27  2.6000000000000D-01 -3.3718879200057D-01  6.8243442701598D-01
28  2.7000000000000D-01 -3.5159837567415D-01  7.0894611792774D-01
29  2.8000000000000D-01 -3.6589822080105D-01  7.3534097979283D-01
30  2.9000000000000D-01 -3.8004157271597D-01  7.6159139891512D-01
31  3.0000000000000D-01 -3.9397886516194D-01  7.8766813888792D-01
32  3.1000000000000D-01 -4.0765790358322D-01  8.1354042443924D-01
33  3.2000000000000D-01 -4.2102406782337D-01  8.3917603516986D-01
34  3.3000000000000D-01 -4.3402053333344D-01  8.6454140877245D-01
35  3.4000000000000D-01 -4.4658850989115D-01  8.8960175326979D-01
36  3.5000000000000D-01 -4.5866749672935D-01  9.1432116776077D-01
37  3.6000000000000D-01 -4.7019555287651D-01  9.3866277111654D-01
38  3.7000000000000D-01 -4.8110958142077D-01  9.6258883802537D-01
39  3.8000000000000D-01 -4.9134562632424D-01  9.8606094174352D-01
40  3.9000000000000D-01 -5.0083918033544D-01  1.0090401028714D+00
41  4.0000000000000D-01 -5.0952550247645D-01  1.0314869434392D+00
42  4.1000000000000D-01 -5.1733994351639D-01  1.0533618455562D+00
43  4.2000000000000D-01 -5.2421827778667D-01  1.0746251138470D+00
44  4.3000000000000D-01 -5.3009703964395D-01  1.0952371408782D+00
45  4.4000000000000D-01 -5.3491386284769D-01  1.1151585747562D+00
46  4.5000000000000D-01 -5.3860782108575D-01  1.1343504880608D+00
47  4.6000000000000D-01 -5.4111976786041D-01  1.1527745472699D+00
48  4.7000000000000D-01 -5.4239267393239D-01  1.1703931818210D+00
49  4.8000000000000D-01 -5.4237196051651D-01  1.1871697519529D+00
50  4.9000000000000D-01 -5.4100582642730D-01  1.2030687144725D+00
51  5.0000000000000D-01 -5.3824556738761D-01  1.2180557855974D+00
52  5.1000000000000D-01 -5.3404588573693D-01  1.2320981000356D+00
53  5.2000000000000D-01 -5.2836518880923D-01  1.2451643654769D+00
54  5.3000000000000D-01 -5.2116587429351D-01  1.2572250116918D+00
55  5.4000000000000D-01 -5.1241460094112D-01  1.2682523334552D+00
56  5.5000000000000D-01 -5.0208254304550D-01  1.2782206265418D+00
57  5.6000000000000D-01 -4.9014562718972D-01  1.2871063160686D+00
58  5.7000000000000D-01 -4.7658474983524D-01  1.2948880765009D+00
59  5.8000000000000D-01 -4.6138597441140D-01  1.3015469426713D+00
60  5.9000000000000D-01 -4.4454070666096D-01  1.3070664112110D+00
61  6.0000000000000D-01 -4.2604584709605D-01  1.3114325318333D+00
62  6.1000000000000D-01 -4.0590391953087D-01  1.3146339879646D+00
63  6.2000000000000D-01 -3.8412317476932D-01  1.3166621662664D+00
64  6.3000000000000D-01 -3.6071766864893D-01  1.3175112146505D+00
65  6.4000000000000D-01 -3.3570731376770D-01  1.3171780884468D+00
66  6.5000000000000D-01 -3.0911790435116D-01  1.3156625844423D+00
67  6.6000000000000D-01 -2.8098111385267D-01  1.3129673625727D+00
68  6.7000000000000D-01 -2.5133446501720D-01  1.3090979551130D+00
69  6.8000000000000D-01 -2.2022127227987D-01  1.3040627632740D+00
70  6.9000000000000D-01 -1.8769055651359D-01  1.2978730411822D+00
71  7.0000000000000D-01 -1.5379693228309D-01  1.2905428672833D+00
72  7.1000000000000D-01 -1.1860046790735D-01  1.2820891032754D+00
73  7.2000000000000D-01 -8.2166518774790D-02  1.2725313407465D+00
74  7.3000000000000D-01 -4.4565534499694D-02  1.2618918357538D+00
75  7.4000000000000D-01 -5.8728406468625D-03  1.2501954316462D+00
76  7.5000000000000D-01  3.3831604110142D-02  1.2374694704976D+00
77  7.6000000000000D-01  7.4463474398488D-02  1.2237436935744D+00
78  7.7000000000000D-01  1.1593436699428D-01  1.2090501313254D+00
79  7.8000000000000D-01  1.5815211085761D-01  1.1934229834350D+00
80  7.9000000000000D-01  2.0102109698256D-01  1.1768984895355D+00
81  8.0000000000000D-01  2.4444262657937D-01  1.1595147912267D+00
82  8.1000000000000D-01  2.8831527600049D-01  1.1413117860963D+00
83  8.2000000000000D-01  3.3253527672613D-01  1.1223309744802D+00
84  8.3000000000000D-01  3.7699690863564D-01  1.1026152997402D+00
85  8.4000000000000D-01  4.2159290471242D-01  1.0822089828742D+00
86  8.5000000000000D-01  4.6621486525890D-01  1.0611573523033D+00
87  8.6000000000000D-01  5.1075367963966D-01  1.0395066697084D+00
88  8.7000000000000D-01  5.5509995352000D-01  1.0173039528104D+00
89  8.8000000000000D-01  5.9914443952798D-01  9.9459679600505D-01
90  8.9000000000000D-01  6.4277846924119D-01  9.7143318977532D-01
91  9.0000000000000D-01  6.8589438438199D-01  9.4786133981093D-01
92  9.1000000000000D-01  7.2838596509846D-01  9.2392948676737D-01
93  9.2000000000000D-01  7.7014885321603D-01  8.9968572759146D-01
94  9.3000000000000D-01  8.1108096836171D-01  8.7517783933240D-01
95  9.4000000000000D-01  8.5108291488915D-01  8.5045310634397D-01
96  9.5000000000000D-01  8.9005837757775D-01  8.2555815176246D-01
97  9.6000000000000D-01  9.2791450412483D-01  8.0053877412267D-01
98  9.7000000000000D-01  9.6456227251564D-01  7.7543978994380D-01
99  9.8000000000000D-01  9.9991684142702D-01  7.5030488308353D-01
100  9.9000000000000D-01  1.0338978819034D+00  7.2517646162010D-01
101  1.0000000000000D+00  1.0664298886366D+00  7.0009552297948D-01
102  1.0100000000000D+00  1.0974424692811D+00  6.7510152797748D-01
103  1.0200000000000D+00  1.1268706103507D+00  6.5023228439541D-01
104  1.0300000000000D+00  1.1546549183548D+00  6.2552384065488D-01
105  1.0400000000000D+00  1.1807418349616D+00  6.0101039009899D-01
106  1.0500000000000D+00  1.2050838251088D+00  5.7672418632595D-01
107  1.0600000000000D+00  1.2276395371179D+00  5.5269546995965D-01
108  1.0700000000000D+00  1.2483739340117D+00  5.2895240717581D-01
109  1.0800000000000D+00  1.2672583953874D+00  5.0552104023367D-01
110  1.0900000000000D+00  1.2842707893320D+00  4.8242525020215D-01
111  1.1000000000000D+00  1.2993955140426D+00  4.5968673198988D-01
112  1.1100000000000D+00  1.3126235089497D+00  4.3732498172772D-01
113  1.1200000000000D+00  1.3239522353145D+00  4.1535729647519D-01
114  1.1300000000000D+00  1.3333856264003D+00  3.9379878616336D-01
115  1.1400000000000D+00  1.3409340074973D+00  3.7266239760867D-01
116  1.1500000000000D+00  1.3466139862184D+00  3.5195895036911D-01
117  1.1600000000000D+00  1.3504483136452D+00  3.3169718414385D-01
118  1.1700000000000D+00  1.3524657170153D+00  3.1188381736817D-01
119  1.1800000000000D+00  1.3527007048194D+00  2.9252361657714D-01
120  1.1900000000000D+00  1.3511933452931D+00  2.7361947606226D-01
121  1.2000000000000D+00  1.3479890194223D+00  2.5517250728599D-01
122  1.2100000000000D+00  1.3431381496702D+00  2.3718213748250D-01
123  1.2200000000000D+00  1.3366959058000D+00  2.1964621680122D-01
124  1.2300000000000D+00  1.3287218892392D+00  2.0256113332058D-01
125  1.2400000000000D+00  1.3192797975036D+00  1.8592193522991D-01
126  1.2500000000000D+00  1.3084370703310D+00  1.6972245942223D-01
127  1.2600000000000D+00  1.2962645192277D+00  1.5395546572233D-01
128  1.2700000000000D+00  1.2828359421709D+00  1.3861277595831D-01
129  1.2800000000000D+00  1.2682277252987D+00  1.2368541705016D-01
130  1.2900000000000D+00  1.2525184334486D+00  1.0916376728473D-01
131  1.3000000000000D+00  1.2357883914123D+00  9.5037704941179D-02
132  1.3100000000000D+00  1.2181192578323D+00  8.1296758415995D-02
133  1.3200000000000D+00  1.1995935936317D+00  6.7930257018311D-02
134  1.3300000000000D+00  1.1802944268917D+00  5.4927481594618D-02
135  1.3400000000000D+00  1.1603048160729D+00  4.2277814163274D-02
136  1.3500000000000D+00  1.1397074133952D+00  2.9970885782694D-02
137  1.3600000000000D+00  1.1185840302677D+00  1.7996721836749D-02
138  1.3700000000000D+00  1.0970152064706D+00  6.3458840300589D-03
139  1.3800000000000D+00  1.0750797848083D+00 -4.9903916284295D-03
140  1.3900000000000D+00  1.0528544929410D+00 -1.6020061563253D-02
141  1.4000000000000D+00  1.0304135338098D+00 -2.6750146650672D-02
142  1.4100000000000D+00  1.0078281862899D+00 -3.7186610188804D-02
143  1.4200000000000D+00  9.8516641733604D-01 -4.7334242300368D-02
144  1.4300000000000D+00  9.6249250686885D-01 -5.7196551242437D-02
145  1.4400000000000D+00  9.3986668674033D-01 -6.6775662140866D-02
146  1.4500000000000D+00  9.1734479451923D-01 -7.6072223369122D-02
147  1.4600000000000D+00  8.9497794337251D-01 -8.5085321057507D-02
148  1.4700000000000D+00  8.7281220855418D-01 -9.3812401839229D-02
149  1.4800000000000D+00  8.5088833130839D-01 -1.0224920408808D-01
150  1.4900000000000D+00  8.2924144081541D-01 -1.1038969781141D-01
151  1.5000000000000D+00  8.0790079429246D-01 -1.1822603311540D-01
152  1.5100000000000D+00  7.8688953603448D-01 -1.2574849748120D-01
153  1.5200000000000D+00  7.6622447495093D-01 -1.3294548150240D-01
154  1.5300000000000D+00  7.4591588124292D-01 -1.3980345325367D-01
155  1.5400000000000D+00  7.2596730161508D-01 -1.4630694086540D-01
156  1.5500000000000D+00  7.0637539318032D-01 -1.5243852324318D-01
157  1.5600000000000D+00  6.8712977193195D-01 -1.5817882808503D-01
158  1.5700000000000D+00  6.6821289909756D-01 -1.6350653994307D-01
159  1.5800000000000D+00  6.4959991350890D-01 -1.6839840576818D-01
160  1.5900000000000D+00  6.3125868480645D-01 -1.7282927573243D-01
161  1.6000000000000D+00  6.1314960413835D-01 -1.7677210874506D-01
162  1.6100000000000D+00  5.9522514322157D-01 -1.8019795899006D-01
163  1.6200000000000D+00  5.7743093908924D-01 -1.8307615806229D-01
164  1.6300000000000D+00  5.5970673388232D-01 -1.8537448026654D-01
165  1.6400000000000D+00  5.4198748729244D-01 -1.8705937812312D-01
166  1.6500000000000D+00  5.2420477671065D-01 -1.8809625488388D-01
167  1.6600000000000D+00  5.0628672254488D-01 -1.8844955957120D-01
168  1.6700000000000D+00  4.8815814086362D-01 -1.8808291995304D-01
169  1.6800000000000D+00  4.6974102128755D-01 -1.8695930846970D-01
170  1.6900000000000D+00  4.5095476780484D-01 -1.8504118364820D-01
171  1.7000000000000D+00  4.3171653236342D-01 -1.8229064188973D-01
172  1.7100000000000D+00  4.1194152016903D-01 -1.7866956517411D-01
173  1.7200000000000D+00  3.9154329594276D-01 -1.7413976729993D-01
174  1.7300000000000D+00  3.7043408514907D-01 -1.6866313743065D-01
175  1.7400000000000D+00  3.4852506699733D-01 -1.6220177960367D-01
176  1.7500000000000D+00  3.2572665877012D-01 -1.5471814786621D-01
177  1.7600000000000D+00  3.0194878771427D-01 -1.4617517543362D-01
178  1.7700000000000D+00  2.7710115105821D-01 -1.3653639797672D-01
179  1.7800000000000D+00  2.5109345982802D-01 -1.2576606915573D-01
180  1.7900000000000D+00  2.2383566787641D-01 -1.1382926890883D-01
181  1.8000000000000D+00  1.9507058703234D-01 -1.0059873250631D-01
182  1.8100000000000D+00  1.6509334448755D-01 -8.6255227429501D-02
183  1.8200000000000D+00  1.3478651648001D-01 -7.1304791333931D-02
184  1.8300000000000D+00  1.0182543739935D-01 -5.4475883001058D-02
185  1.8400000000000D+00  6.2462555786256D-02 -3.3714039557167D-02
186  1.8500000000000D+00  2.2145327497028D-02 -1.2050765389515D-02
187  1.8600000000000D+00 -3.5317054109885D-03  1.8668854942912D-03
188  1.8700000000000D+00 -6.6567967372724D-03  3.5887034802709D-03
189  1.8800000000000D+00  1.1739318773616D-05 -6.3002037047533D-06
190  1.8900000000000D+00  1.7679243623122D-03 -9.5025997768668D-04
191  1.9000000000000D+00  5.4248100566304D-04 -2.9185186147821D-04
192  1.9100000000000D+00 -2.1335837175238D-04  1.1357155666425D-04
193  1.9200000000000D+00 -1.5101912716299D-04  8.0427427101794D-05
194  1.9300000000000D+00  4.9923873726760D-07 -1.7766639572624D-07
195  1.9400000000000D+00  6.7592752468235D-07 -2.4054545073913D-07
196  1.9500000000000D+00  0.0000000000000D+00  0.0000000000000D+00
197  1.9600000000000D+00  0.0000000000000D+00  0.0000000000000D+00
198  1.9700000000000D+00  0.0000000000000D+00  0.0000000000000D+00
199  1.9800000000000D+00  0.0000000000000D+00  0.0000000000000D+00
200  1.9900000000000D+00  0.0000000000000D+00  0.0000000000000D+00
201  2.0000000000000D+00  0.0000000000000D+00  0.0000000000000D+00
202  2.0100000000000D+00  0.0000000000000D+00  0.0000000000000D+00
203  2.0200000000000D+00  0.0000000000000D+00  0.0000000000000D+00
204  2.0300000000000D+00  0.0000000000000D+00  0.0000000000000D+00
205  2.0400000000000D+00  0.0000000000000D+00  0.0000000000000D+00
206  2.0500000000000D+00  0.0000000000000D+00  0.0000000000000D+00
207  2.0600000000000D+00  0.0000000000000D+00  0.0000000000000D+00
208  2.0700000000000D+00  0.0000000000000D+00  0.0000000000000D+00
209  2.0800000000000D+00  0.0000000000000D+00  0.0000000000000D+00
210  2.0900000000000D+00  0.0000000000000D+00  0.0000000000000D+00
211  2.1000000000000D+00  0.0000000000000D+00  0.0000000000000D+00
212  2.1100000000000D+00  0.0000000000000D+00  0.0000000000000D+00
213  2.1200000000000D+00  0.0000000000000D+00  0.0000000000000D+00
214  2.1300000000000D+00  0.0000000000000D+00  0.0000000000000D+00
215  2.1400000000000D+00  0.0000000000000D+00  0.0000000000000D+00
216  2.1500000000000D+00  0.0000000000000D+00  0.0000000000000D+00
217  2.1600000000000D+00  0.0000000000000D+00  0.0000000000000D+00
218  2.1700000000000D+00  0.0000000000000D+00  0.0000000000000D+00
219  2.1800000000000D+00  0.0000000000000D+00  0.0000000000000D+00
220  2.1900000000000D+00  0.0000000000000D+00  0.0000000000000D+00
221  2.2000000000000D+00  0.0000000000000D+00  0.0000000000000D+00
222  2.2100000000000D+00  0.0000000000000D+00  0.0000000000000D+00
223  2.2200000000000D+00  0.0000000000000D+00  0.0000000000000D+00
224  2.2300000000000D+00  0.0000000000000D+00  0.0000000000000D+00
225  2.2400000000000D+00  0.0000000000000D+00  0.0000000000000D+00
226  2.2500000000000D+00  0.0000000000000D+00  0.0000000000000D+00
227  2.2600000000000D+00  0.0000000000000D+00  0.0000000000000D+00
228  2.2700000000000D+00  0.0000000000000D+00  0.0000000000000D+00
229  2.2800000000000D+00  0.0000000000000D+00  0.0000000000000D+00
230  2.2900000000000D+00  0.0000000000000D+00  0.0000000000000D+00
231  2.3000000000000D+00  0.0000000000000D+00  0.0000000000000D+00
232  2.3100000000000D+00  0.0000000000000D+00  0.0000000000000D+00
233  2.3200000000000D+00  0.0000000000000D+00  0.0000000000000D+00
234  2.3300000000000D+00  0.0000000000000D+00  0.0000000000000D+00
235  2.3400000000000D+00  0.0000000000000D+00  0.0000000000000D+00
236  2.3500000000000D+00  0.0000000000000D+00  0.0000000000000D+00
237  2.3600000000000D+00  0.0000000000000D+00  0.0000000000000D+00
238  2.3700000000000D+00  0.0000000000000D+00  0.0000000000000D+00
239  2.3800000000000D+00  0.0000000000000D+00  0.0000000000000D+00
240  2.3900000000000D+00  0.0000000000000D+00  0.0000000000000D+00
241  2.4000000000000D+00  0.0000000000000D+00  0.0000000000000D+00
242  2.4100000000000D+00  0.0000000000000D+00  0.0000000000000D+00
243  2.4200000000000D+00  0.0000000000000D+00  0.0000000000000D+00
244  2.4300000000000D+00  0.0000000000000D+00  0.0000000000000D+00
245  2.4400000000000D+00  0.0000000000000D+00  0.0000000000000D+00
246  2.4500000000000D+00  0.0000000000000D+00  0.0000000000000D+00
247  2.4600000000000D+00  0.0000000000000D+00  0.0000000000000D+00
248  2.4700000000000D+00  0.0000000000000D+00  0.0000000000000D+00
249  2.4800000000000D+00  0.0000000000000D+00  0.0000000000000D+00
250  2.4900000000000D+00  0.0000000000000D+00  0.0000000000000D+00
251  2.5000000000000D+00  0.0000000000000D+00  0.0000000000000D+00
252  2.5100000000000D+00  0.0000000000000D+00  0.0000000000000D+00
253  2.5200000000000D+00  0.0000000000000D+00  0.0000000000000D+00
254  2.5300000000000D+00  0.0000000000000D+00  0.0000000000000D+00
255  2.5400000000000D+00  0.0000000000000D+00  0.0000000000000D+00
256  2.5500000000000D+00  0.0000000000000D+00  0.0000000000000D+00
257  2.5600000000000D+00  0.0000000000000D+00  0.0000000000000D+00
258  2.5700000000000D+00  0.0000000000000D+00  0.0000000000000D+00
259  2.5800000000000D+00  0.0000000000000D+00  0.0000000000000D+00
260  2.5900000000000D+00  0.0000000000000D+00  0.0000000000000D+00
261  2.6000000000000D+00  0.0000000000000D+00  0.0000000000000D+00
262  2.6100000000000D+00  0.0000000000000D+00  0.0000000000000D+00
263  2.6200000000000D+00  0.0000000000000D+00  0.0000000000000D+00
264  2.6300000000000D+00  0.0000000000000D+00  0.0000000000000D+00
265  2.6400000000000D+00  0.0000000000000D+00  0.0000000000000D+00
266  2.6500000000000D+00  0.0000000000000D+00  0.0000000000000D+00
267  2.6600000000000D+00  0.0000000000000D+00  0.0000000000000D+00
268  2.6700000000000D+00  0.0000000000000D+00  0.0000000000000D+00
269  2.6800000000000D+00  0.0000000000000D+00  0.0000000000000D+00
270  2.6900000000000D+00  0.0000000000000D+00  0.0000000000000D+00
271  2.7000000000000D+00  0.0000000000000D+00  0.0000000000000D+00
272  2.7100000000000D+00  0.0000000000000D+00  0.0000000000000D+00
273  2.7200000000000D+00  0.0000000000000D+00  0.0000000000000D+00
274  2.7300000000000D+00  0.0000000000000D+00  0.0000000000000D+00
275  2.7400000000000D+00  0.0000000000000D+00  0.0000000000000D+00
276  2.7500000000000D+00  0.0000000000000D+00  0.0000000000000D+00
277  2.7600000000000D+00  0.0000000000000D+00  0.0000000000000D+00
278  2.7700000000000D+00  0.0000000000000D+00  0.0000000000000D+00
279  2.7800000000000D+00  0.0000000000000D+00  0.0000000000000D+00
280  2.7900000000000D+00  0.0000000000000D+00  0.0000000000000D+00
281  2.8000000000000D+00  0.0000000000000D+00  0.0000000000000D+00
282  2.8100000000000D+00  0.0000000000000D+00  0.0000000000000D+00
283  2.8200000000000D+00  0.0000000000000D+00  0.0000000000000D+00
284  2.8300000000000D+00  0.0000000000000D+00  0.0000000000000D+00
285  2.8400000000000D+00  0.0000000000000D+00  0.0000000000000D+00
286  2.8500000000000D+00  0.0000000000000D+00  0.0000000000000D+00
287  2.8600000000000D+00  0.0000000000000D+00  0.0000000000000D+00
288  2.8700000000000D+00  0.0000000000000D+00  0.0000000000000D+00
289  2.8800000000000D+00  0.0000000000000D+00  0.0000000000000D+00
290  2.8900000000000D+00  0.0000000000000D+00  0.0000000000000D+00
291  2.9000000000000D+00  0.0000000000000D+00  0.0000000000000D+00
292  2.9100000000000D+00  0.0000000000000D+00  0.0000000000000D+00
293  2.9200000000000D+00  0.0000000000000D+00  0.0000000000000D+00
294  2.9300000000000D+00  0.0000000000000D+00  0.0000000000000D+00
295  2.9400000000000D+00  0.0000000000000D+00  0.0000000000000D+00
296  2.9500000000000D+00  0.0000000000000D+00  0.0000000000000D+00
297  2.9600000000000D+00  0.0000000000000D+00  0.0000000000000D+00
298  2.9700000000000D+00  0.0000000000000D+00  0.0000000000000D+00
299  2.9800000000000D+00  0.0000000000000D+00  0.0000000000000D+00
300  2.9900000000000D+00  0.0000000000000D+00  0.0000000000000D+00
301  3.0000000000000D+00  0.0000000000000D+00  0.0000000000000D+00
302  3.0100000000000D+00  0.0000000000000D+00  0.0000000000000D+00
303  3.0200000000000D+00  0.0000000000000D+00  0.0000000000000D+00
304  3.0300000000000D+00  0.0000000000000D+00  0.0000000000000D+00
305  3.0400000000000D+00  0.0000000000000D+00  0.0000000000000D+00
306  3.0500000000000D+00  0.0000000000000D+00  0.0000000000000D+00
307  3.0600000000000D+00  0.0000000000000D+00  0.0000000000000D+00
308  3.0700000000000D+00  0.0000000000000D+00  0.0000000000000D+00
309  3.0800000000000D+00  0.0000000000000D+00  0.0000000000000D+00
310  3.0900000000000D+00  0.0000000000000D+00  0.0000000000000D+00
311  3.1000000000000D+00  0.0000000000000D+00  0.0000000000000D+00
312  3.1100000000000D+00  0.0000000000000D+00  0.0000000000000D+00
313  3.1200000000000D+00  0.0000000000000D+00  0.0000000000000D+00
314  3.1300000000000D+00  0.0000000000000D+00  0.0000000000000D+00
315  3.1400000000000D+00  0.0000000000000D+00  0.0000000000000D+00
316  3.1500000000000D+00  0.0000000000000D+00  0.0000000000000D+00
317  3.1600000000000D+00  0.0000000000000D+00  0.0000000000000D+00
318  3.1700000000000D+00  0.0000000000000D+00  0.0000000000000D+00
319  3.1800000000000D+00  0.0000000000000D+00  0.0000000000000D+00
320  3.1900000000000D+00  0.0000000000000D+00  0.0000000000000D+00
321  3.2000000000000D+00  0.0000000000000D+00  0.0000000000000D+00
322  3.2100000000000D+00  0.0000000000000D+00  0.0000000000000D+00
323  3.2200000000000D+00  0.0000000000000D+00  0.0000000000000D+00
324  3.2300000000000D+00  0.0000000000000D+00  0.0000000000000D+00
325  3.2400000000000D+00  0.0000000000000D+00  0.0000000000000D+00
326  3.2500000000000D+00  0.0000000000000D+00  0.0000000000000D+00
327  3.2600000000000D+00  0.0000000000000D+00  0.0000000000000D+00
328  3.2700000000000D+00  0.0000000000000D+00  0.0000000000000D+00
329  3.2800000000000D+00  0.0000000000000D+00  0.0000000000000D+00
330  3.2900000000000D+00  0.0000000000000D+00  0.0000000000000D+00
331  3.3000000000000D+00  0.0000000000000D+00  0.0000000000000D+00
332  3.3100000000000D+00  0.0000000000000D+00  0.0000000000000D+00
333  3.3200000000000D+00  0.0000000000000D+00  0.0000000000000D+00
334  3.3300000000000D+00  0.0000000000000D+00  0.0000000000000D+00
335  3.3400000000000D+00  0.0000000000000D+00  0.0000000000000D+00
336  3.3500000000000D+00  0.0000000000000D+00  0.0000000000000D+00
337  3.3600000000000D+00  0.0000000000000D+00  0.0000000000000D+00
338  3.3700000000000D+00  0.0000000000000D+00  0.0000000000000D+00
339  3.3800000000000D+00  0.0000000000000D+00  0.0000000000000D+00
340  3.3900000000000D+00  0.0000000000000D+00  0.0000000000000D+00
341  3.4000000000000D+00  0.0000000000000D+00  0.0000000000000D+00
342  3.4100000000000D+00  0.0000000000000D+00  0.0000000000000D+00
343  3.4200000000000D+00  0.0000000000000D+00  0.0000000000000D+00
344  3.4300000000000D+00  0.0000000000000D+00  0.0000000000000D+00
345  3.4400000000000D+00  0.0000000000000D+00  0.0000000000000D+00
346  3.4500000000000D+00  0.0000000000000D+00  0.0000000000000D+00
347  3.4600000000000D+00  0.0000000000000D+00  0.0000000000000D+00
348  3.4700000000000D+00  0.0000000000000D+00  0.0000000000000D+00
349  3.4800000000000D+00  0.0000000000000D+00  0.0000000000000D+00
350  3.4900000000000D+00  0.0000000000000D+00  0.0000000000000D+00
351  3.5000000000000D+00  0.0000000000000D+00  0.0000000000000D+00
352  3.5100000000000D+00  0.0000000000000D+00  0.0000000000000D+00
353  3.5200000000000D+00  0.0000000000000D+00  0.0000000000000D+00
354  3.5300000000000D+00  0.0000000000000D+00  0.0000000000000D+00
355  3.5400000000000D+00  0.0000000000000D+00  0.0000000000000D+00
356  3.5500000000000D+00  0.0000000000000D+00  0.0000000000000D+00
357  3.5600000000000D+00  0.0000000000000D+00  0.0000000000000D+00
358  3.5700000000000D+00  0.0000000000000D+00  0.0000000000000D+00
359  3.5800000000000D+00  0.0000000000000D+00  0.0000000000000D+00
360  3.5900000000000D+00  0.0000000000000D+00  0.0000000000000D+00
361  3.6000000000000D+00  0.0000000000000D+00  0.0000000000000D+00
362  3.6100000000000D+00  0.0000000000000D+00  0.0000000000000D+00
363  3.6200000000000D+00  0.0000000000000D+00  0.0000000000000D+00
364  3.6300000000000D+00  0.0000000000000D+00  0.0000000000000D+00
365  3.6400000000000D+00  0.0000000000000D+00  0.0000000000000D+00
366  3.6500000000000D+00  0.0000000000000D+00  0.0000000000000D+00
367  3.6600000000000D+00  0.0000000000000D+00  0.0000000000000D+00
368  3.6700000000000D+00  0.0000000000000D+00  0.0000000000000D+00
369  3.6800000000000D+00  0.0000000000000D+00  0.0000000000000D+00
370  3.6900000000000D+00  0.0000000000000D+00  0.0000000000000D+00
371  3.7000000000000D+00  0.0000000000000D+00  0.0000000000000D+00
372  3.7100000000000D+00  0.0000000000000D+00  0.0000000000000D+00
373  3.7200000000000D+00  0.0000000000000D+00  0.0000000000000D+00
374  3.7300000000000D+00  0.0000000000000D+00  0.0000000000000D+00
375  3.7400000000000D+00  0.0000000000000D+00  0.0000000000000D+00
376  3.7500000000000D+00  0.0000000000000D+00  0.0000000000000D+00
377  3.7600000000000D+00  0.0000000000000D+00  0.0000000000000D+00
378  3.7700000000000D+00  0.0000000000000D+00  0.0000000000000D+00
379  3.7800000000000D+00  0.0000000000000D+00  0.0000000000000D+00
380  3.7900000000000D+00  0.0000000000000D+00  0.0000000000000D+00
381  3.8000000000000D+00  0.0000000000000D+00  0.0000000000000D+00
382  3.8100000000000D+00  0.0000000000000D+00  0.0000000000000D+00
383  3.8200000000000D+00  0.0000000000000D+00  0.0000000000000D+00
384  3.8300000000000D+00  0.0000000000000D+00  0.0000000000000D+00
385  3.8400000000000D+00  0.0000000000000D+00  0.0000000000000D+00
386  3.8500000000000D+00  0.0000000000000D+00  0.0000000000000D+00
387  3.8600000000000D+00  0.0000000000000D+00  0.0000000000000D+00
388  3.8700000000000D+00  0.0000000000000D+00  0.0000000000000D+00
389  3.8800000000000D+00  0.0000000000000D+00  0.0000000000000D+00
390  3.8900000000000D+00  0.0000000000000D+00  0.0000000000000D+00
391  3.9000000000000D+00  0.0000000000000D+00  0.0000000000000D+00
392  3.9100000000000D+00  0.0000000000000D+00  0.0000000000000D+00
393  3.9200000000000D+00  0.0000000000000D+00  0.0000000000000D+00
394  3.9300000000000D+00  0.0000000000000D+00  0.0000000000000D+00
395  3.9400000000000D+00  0.0000000000000D+00  0.0000000000000D+00
396  3.9500000000000D+00  0.0000000000000D+00  0.0000000000000D+00
397  3.9600000000000D+00  0.0000000000000D+00  0.0000000000000D+00
398  3.9700000000000D+00  0.0000000000000D+00  0.0000000000000D+00
399  3.9800000000000D+00  0.0000000000000D+00  0.0000000000000D+00
400  3.9900000000000D+00  0.0000000000000D+00  0.0000000000000D+00
401  4.0000000000000D+00  0.0000000000000D+00  0.0000000000000D+00
402  4.0100000000000D+00  0.0000000000000D+00  0.0000000000000D+00
403  4.0200000000000D+00  0.0000000000000D+00  0.0000000000000D+00
404  4.0300000000000D+00  0.0000000000000D+00  0.0000000000000D+00
405  4.0400000000000D+00  0.0000000000000D+00  0.0000000000000D+00
406  4.0500000000000D+00  0.0000000000000D+00  0.0000000000000D+00
407  4.0600000000000D+00  0.0000000000000D+00  0.0000000000000D+00
408  4.0700000000000D+00  0.0000000000000D+00  0.0000000000000D+00
409  4.0800000000000D+00  0.0000000000000D+00  0.0000000000000D+00
410  4.0900000000000D+00  0.0000000000000D+00  0.0000000000000D+00
411  4.1000000000000D+00  0.0000000000000D+00  0.0000000000000D+00
412  4.1100000000000D+00  0.0000000000000D+00  0.0000000000000D+00
413  4.1200000000000D+00  0.0000000000000D+00  0.0000000000000D+00
414  4.1300000000000D+00  0.0000000000000D+00  0.0000000000000D+00
415  4.1400000000000D+00  0.0000000000000D+00  0.0000000000000D+00
416  4.1500000000000D+00  0.0000000000000D+00  0.0000000000000D+00
417  4.1600000000000D+00  0.0000000000000D+00  0.0000000000000D+00
418  4.1700000000000D+00  0.0000000000000D+00  0.0000000000000D+00
419  4.1800000000000D+00  0.0000000000000D+00  0.0000000000000D+00
420  4.1900000000000D+00  0.0000000000000D+00  0.0000000000000D+00
421  4.2000000000000D+00  0.0000000000000D+00  0.0000000000000D+00
422  4.2100000000000D+00  0.0000000000000D+00  0.0000000000000D+00
423  4.2200000000000D+00  0.0000000000000D+00  0.0000000000000D+00
424  4.2300000000000D+00  0.0000000000000D+00  0.0000000000000D+00
425  4.2400000000000D+00  0.0000000000000D+00  0.0000000000000D+00
426  4.2500000000000D+00  0.0000000000000D+00  0.0000000000000D+00
427  4.2600000000000D+00  0.0000000000000D+00  0.0000000000000D+00
428  4.2700000000000D+00  0.0000000000000D+00  0.0000000000000D+00
429  4.2800000000000D+00  0.0000000000000D+00  0.0000000000000D+00
430  4.2900000000000D+00  0.0000000000000D+00  0.0000000000000D+00
431  4.3000000000000D+00  0.0000000000000D+00  0.0000000000000D+00
432  4.3100000000000D+00  0.0000000000000D+00  0.0000000000000D+00
433  4.3200000000000D+00  0.0000000000000D+00  0.0000000000000D+00
434  4.3300000000000D+00  0.0000000000000D+00  0.0000000000000D+00
435  4.3400000000000D+00  0.0000000000000D+00  0.0000000000000D+00
436  4.3500000000000D+00  0.0000000000000D+00  0.0000000000000D+00
437  4.3600000000000D+00  0.0000000000000D+00  0.0000000000000D+00
438  4.3700000000000D+00  0.0000000000000D+00  0.0000000000000D+00
439  4.3800000000000D+00  0.0000000000000D+00  0.0000000000000D+00
440  4.3900000000000D+00  0.0000000000000D+00  0.0000000000000D+00
441  4.4000000000000D+00  0.0000000000000D+00  0.0000000000000D+00
442  4.4100000000000D+00  0.0000000000000D+00  0.0000000000000D+00
443  4.4200000000000D+00  0.0000000000000D+00  0.0000000000000D+00