<?xml version="1.0" encoding="UTF-8" ?>
<psml version="1.1" energy_unit="hartree" length_unit="bohr"
 uuid="cf8d4400-539e-11e8-429b-b20ef97f31dd"
 xmlns="http://esl.cecam.org/PSML/ns/1.1">
<provenance creator="ONCVPSP-3.3.0+psml-3.3.0-73 (fully-relativistic)"
 date="2018-05-09">
<annotation action="semilocal-pseudopotential-generation"
 action-cont="projectors-generation" />
<input-file name="oncvpsp-input">
<![CDATA[# atsym z nc nv iexc psfile
Ga 31 5 3 -116133 upf
# n l f
1 0 2.0
2 0 2.0
2 1 6.0
3 0 2.0
3 1 6.0
3 2 10.0
4 0 2.0
4 1 1.0
# lmax
2
# l rc ep ncon nbas qcut
0 1.65 0.0 4 8 4.4
1 1.75 0.0 4 8 5.8
2 1.9 0.0 4 9 9.0
# lloc lpopt rc5 dvloc0
4 5 1.6 0.0
# l nproj debl
0 2 3.0
1 2 3.0
2 2 2.0
# icmod fcfact rcfact
3 5.0 1.4
# epsh1 epsh2 depsh
-12.0 12.0 0.02
# rlmax drl
6.0 0.01
 0
]]>
</input-file>
</provenance>
<pseudo-atom-spec atomic-label="Ga" atomic-number="31" z-pseudo="13"
 flavor="Hamann&apos;s oncvpsp" relativity="dirac" spin-dft="no"
 core-corrections="yes">
<annotation pseudo-energy="-67.0221284583" />
<exchange-correlation>
<annotation oncvpsp-xc-code="-116133" oncvpsp-xc-type="libxc-interface" />
<libxc-info number-of-functionals="2">
<functional name="Perdew, Burke &amp; Ernzerhof SOL (GGA)" type="exchange"
 id="116" />
<functional name="Perdew, Burke &amp; Ernzerhof SOL (GGA)" type="correlation"
 id="133" />
</libxc-info>
</exchange-correlation>
<valence-configuration total-valence-charge="13">
<shell n="3" l="d" occupation="10" />
<shell n="4" l="s" occupation="2" />
<shell n="4" l="p" occupation="1" />
</valence-configuration>
</pseudo-atom-spec>
<grid npts="458">
<annotation type="sampled from oncvpsp log grid"
 recipe="r(i:1..N) = r1*exp(a*(i-1)) + r=0; resampled"
 recipe-cont="r1: scale; a: step" scale="0.161290322581E-04"
 step="0.119285708653E-01" delta="0.500000000000E-02" rmax="44.3593682749" />
<grid-data>
  0.000000000000E+00  5.005354308404E-03  1.011777605404E-02  1.517827746610E-02
  2.020946365338E-02  2.535038301076E-02  3.068122710716E-02  3.582773785855E-02
  4.085121947787E-02  4.602673310278E-02  5.124302544502E-02  5.637400155005E-02
  6.201874349076E-02  6.741965885400E-02  7.242185184910E-02  7.779518191586E-02
  8.356718552202E-02  8.870300612650E-02  9.415446082966E-02  9.994094767748E-02
  1.060830568691E-01  1.112674348058E-01  1.167051781279E-01  1.224086690381E-01
  1.283908948690E-01  1.346654776560E-01  1.412467051564E-01  1.463928491930E-01
  1.517264864416E-01  1.572544479790E-01  1.629838137635E-01  1.689219217026E-01
  1.750763770511E-01  1.814550621518E-01  1.880661465305E-01  1.949180973592E-01
  2.020196903006E-01  2.093800207477E-01  2.144352919686E-01  2.196126176579E-01
  2.249149446987E-01  2.303452911235E-01  2.359067478323E-01  2.416024803520E-01
  2.474357306376E-01  2.534098189181E-01  2.595281455861E-01  2.657941931331E-01
  2.722115281321E-01  2.787838032674E-01  2.855147594134E-01  2.924082277647E-01
  2.994681320159E-01  3.066984905953E-01  3.141034189522E-01  3.216871318994E-01
  3.294539460120E-01  3.374082820845E-01  3.455546676471E-01  3.538977395428E-01
  3.624422465663E-01  3.711930521674E-01  3.801551372189E-01  3.893336028520E-01
  3.987336733592E-01  4.083606991688E-01  4.182201598895E-01  4.232388018082E-01
  4.283176674299E-01  4.334574794391E-01  4.386589691923E-01  4.439228768226E-01
  4.492499513445E-01  4.546409507606E-01  4.600966421698E-01  4.656178018758E-01
  4.712052154983E-01  4.768596780843E-01  4.825819942213E-01  4.883729781520E-01
  4.942334538898E-01  5.001642553365E-01  5.061662264005E-01  5.122402211173E-01
  5.183871037707E-01  5.246077490160E-01  5.309030420042E-01  5.372738785082E-01
  5.437211650503E-01  5.502458190309E-01  5.568487688593E-01  5.635309540856E-01
  5.702933255346E-01  5.771368454410E-01  5.840624875863E-01  5.910712374374E-01
  5.981640922866E-01  6.053420613940E-01  6.126061661308E-01  6.199574401243E-01
  6.273969294058E-01  6.349256925587E-01  6.425448008694E-01  6.502553384798E-01
  6.580584025416E-01  6.659551033721E-01  6.739465646126E-01  6.820339233879E-01
  6.902183304686E-01  6.985009504342E-01  7.068829618394E-01  7.153655573815E-01
  7.239499440701E-01  7.326373433989E-01  7.414289915197E-01  7.503261394179E-01
  7.593300530909E-01  7.684420137280E-01  7.776633178928E-01  7.869952777075E-01
  7.964392210400E-01  8.059964916924E-01  8.156684495928E-01  8.254564709879E-01
  8.353619486397E-01  8.453862920234E-01  8.555309275277E-01  8.657972986580E-01
  8.761868662419E-01  8.867011086368E-01  8.973415219405E-01  9.081096202037E-01
  9.190069356462E-01  9.300350188739E-01  9.411954391004E-01  9.524897843696E-01
  9.639196617821E-01  9.754866977235E-01  9.871925380961E-01  9.990388485533E-01
  1.011027314736E+00  1.023159642513E+00  1.035437558223E+00  1.047862808922E+00
  1.060437162629E+00  1.073162408580E+00  1.086040357483E+00  1.099072841773E+00
  1.112261715874E+00  1.125608856465E+00  1.139116162742E+00  1.152785556695E+00
  1.166618983376E+00  1.180618411176E+00  1.194785832110E+00  1.209123262095E+00
  1.223632741241E+00  1.238316334136E+00  1.253176130145E+00  1.268214243707E+00
  1.283432814631E+00  1.298834008407E+00  1.314420016508E+00  1.330193056706E+00
  1.346155373386E+00  1.362309237867E+00  1.378656948721E+00  1.395200832106E+00
  1.411943242091E+00  1.428886560996E+00  1.446033199728E+00  1.463385598125E+00
  1.480946225303E+00  1.498717580006E+00  1.516702190966E+00  1.534902617258E+00
  1.553321448665E+00  1.571961306049E+00  1.590824841722E+00  1.609914739822E+00
  1.629233716700E+00  1.648784521301E+00  1.668569935556E+00  1.688592774783E+00
  1.708855888080E+00  1.729362158737E+00  1.750114504642E+00  1.771115878698E+00
  1.792369269242E+00  1.813877700473E+00  1.835644232879E+00  1.857671963673E+00
  1.879964027237E+00  1.902523595564E+00  1.925353878711E+00  1.948458125255E+00
  1.971839622759E+00  1.995501698232E+00  2.019447718610E+00  2.043681091234E+00
  2.068205264329E+00  2.093023727500E+00  2.118140012230E+00  2.143557692377E+00
  2.169280384686E+00  2.195311749302E+00  2.221655490294E+00  2.248315356177E+00
  2.275295140451E+00  2.302598682137E+00  2.330229866322E+00  2.358192624718E+00
  2.386490936215E+00  2.415128827449E+00  2.444110373379E+00  2.473439697859E+00
  2.503120974234E+00  2.533158425924E+00  2.563556327036E+00  2.594319002960E+00
  2.625450830996E+00  2.656956240967E+00  2.688839715859E+00  2.721105792449E+00
  2.753759061959E+00  2.786804170702E+00  2.820245820751E+00  2.854088770600E+00
  2.888337835847E+00  2.922997889877E+00  2.958073864556E+00  2.993570750930E+00
  3.029493599941E+00  3.065847523141E+00  3.102637693418E+00  3.139869345739E+00
  3.177547777888E+00  3.215678351223E+00  3.254266491438E+00  3.293317689335E+00
  3.332837501607E+00  3.372831551626E+00  3.413305530246E+00  3.454265196609E+00
  3.495716378968E+00  3.537664975516E+00  3.580116955222E+00  3.623078358684E+00
  3.666555298989E+00  3.710553962577E+00  3.755080610127E+00  3.800141577449E+00
  3.845743276378E+00  3.891892195695E+00  3.938594902043E+00  3.985858040868E+00
  4.033688337358E+00  4.082092597406E+00  4.131077708575E+00  4.180650641078E+00
  4.230818448771E+00  4.281588270156E+00  4.332967329398E+00  4.384962937351E+00
  4.437582492599E+00  4.490833482510E+00  4.544723484301E+00  4.599260166112E+00
  4.654451288106E+00  4.710304703563E+00  4.766828360006E+00  4.824030300326E+00
  4.881918663930E+00  4.940501687897E+00  4.999787708151E+00  5.059785160649E+00
  5.120502582577E+00  5.181948613568E+00  5.244131996931E+00  5.307061580894E+00
  5.370746319865E+00  5.435195275703E+00  5.500417619012E+00  5.566422630440E+00
  5.633219702005E+00  5.700818338429E+00  5.769228158490E+00  5.838458896392E+00
  5.908520403149E+00  5.979422647987E+00  6.051175719762E+00  6.123789828400E+00
  6.197275306340E+00  6.271642610016E+00  6.346902321337E+00  6.423065149193E+00
  6.500141930983E+00  6.578143634155E+00  6.657081357765E+00  6.736966334058E+00
  6.817809930066E+00  6.899623649227E+00  6.982419133018E+00  7.066208162614E+00
  7.151002660566E+00  7.236814692492E+00  7.323656468802E+00  7.411540346428E+00
  7.500478830585E+00  7.590484576552E+00  7.681570391471E+00  7.773749236168E+00
  7.867034227002E+00  7.961438637726E+00  8.056975901379E+00  8.153659612196E+00
  8.251503527542E+00  8.350521569872E+00  8.450727828711E+00  8.552136562655E+00
  8.654762201407E+00  8.758619347824E+00  8.863722779998E+00  8.970087453358E+00
  9.077728502798E+00  9.186661244832E+00  9.296901179770E+00  9.408463993927E+00
  9.521365561854E+00  9.635621948597E+00  9.751249411980E+00  9.868264404924E+00
  9.986683577783E+00  1.010652378072E+01  1.022780206608E+01  1.035053569088E+01
  1.047474211917E+01  1.060043902460E+01  1.072764429289E+01  1.085637602441E+01
  1.098665253670E+01  1.111849236714E+01  1.125191427555E+01  1.138693724685E+01
  1.152358049382E+01  1.166186345974E+01  1.180180582126E+01  1.194342749111E+01
  1.208674862101E+01  1.223178960446E+01  1.237857107971E+01  1.252711393267E+01
  1.267743929986E+01  1.282956857146E+01  1.298352339432E+01  1.313932567505E+01
  1.329699758315E+01  1.345656155415E+01  1.361804029280E+01  1.378145677631E+01
  1.394683425763E+01  1.411419626872E+01  1.428356662394E+01  1.445496942343E+01
  1.462842905651E+01  1.480397020519E+01  1.498161784765E+01  1.516139726182E+01
  1.534333402896E+01  1.552745403731E+01  1.571378348576E+01  1.590234888759E+01
  1.609317707424E+01  1.628629519913E+01  1.648173074152E+01  1.667951151042E+01
  1.687966564854E+01  1.708222163633E+01  1.728720829596E+01  1.749465479551E+01
  1.770459065306E+01  1.791704574090E+01  1.813205028979E+01  1.834963489327E+01
  1.856983051198E+01  1.879266847813E+01  1.901818049987E+01  1.924639866586E+01
  1.947735544985E+01  1.971108371525E+01  1.994761671984E+01  2.018698812047E+01
  2.042923197792E+01  2.067438276165E+01  2.092247535479E+01  2.117354505905E+01
  2.142762759976E+01  2.168475913096E+01  2.194497624053E+01  2.220831595542E+01
  2.247481574688E+01  2.274451353584E+01  2.301744769827E+01  2.329365707065E+01
  2.357318095550E+01  2.385605912697E+01  2.414233183649E+01  2.443203981853E+01
  2.472522429635E+01  2.502192698791E+01  2.532219011176E+01  2.562605639310E+01
  2.593356906982E+01  2.624477189866E+01  2.655970916144E+01  2.687842567138E+01
  2.720096677944E+01  2.752737838079E+01  2.785770692136E+01  2.819199940441E+01
  2.853030339727E+01  2.887266703803E+01  2.921913904249E+01  2.956976871100E+01
  2.992460593553E+01  3.028370120676E+01  3.064710562124E+01  3.101487088870E+01
  3.138704933936E+01  3.176369393143E+01  3.214485825861E+01  3.253059655771E+01
  3.292096371640E+01  3.331601528100E+01  3.371580746437E+01  3.412039715395E+01
  3.452984191979E+01  3.494420002283E+01  3.536353042311E+01  3.578789278818E+01
  3.621734750164E+01  3.665195567166E+01  3.709177913972E+01  3.753688048940E+01
  3.798732305527E+01  3.844317093193E+01  3.890448898312E+01  3.937134285091E+01
  3.984379896512E+01  4.032192455271E+01  4.080578764734E+01  4.129545709911E+01
  4.179100258430E+01  4.229249461531E+01  4.280000455069E+01  4.331360460530E+01
  4.383336786056E+01  4.435936827489E+01
</grid-data>
</grid>
<valence-charge total-charge="13" is-unscreening-charge="yes"
 rescaled-to-z-pseudo="no">
<radfunc>
<data npts="458">
  8.754370706418E-04  8.780201357853E-04  8.917225442854E-04  9.334248200303E-04
  1.030786671180E-03  1.228466172142E-03  1.594966165386E-03  2.172083717277E-03
  3.021398648587E-03  4.279244335567E-03  6.041437976058E-03  8.369703162699E-03
  1.175582890674E-02  1.595874201609E-02  2.083480795709E-02  2.728731868633E-02
  3.582168460649E-02  4.499753737019E-02  5.656901042020E-02  7.115233701354E-02
  8.951792404464E-02  1.075720762951E-01  1.292558459995E-01  1.552809776701E-01
  1.864926817988E-01  2.238926379298E-01  2.686652864203E-01  3.079145799262E-01
  3.527703239935E-01  4.039975416320E-01  4.624571239927E-01  5.291158105266E-01
  6.050567046045E-01  6.914902110971E-01  7.897652310943E-01  9.013803853643E-01
  1.027994960432E+00  1.171439177330E+00  1.277403522683E+00  1.392378922702E+00
  1.517044738825E+00  1.652118463580E+00  1.798355780216E+00  1.956550206908E+00
  2.127532247176E+00  2.312167959415E+00  2.511356849352E+00  2.726028979997E+00
  2.957141184452E+00  3.205672258023E+00  3.472616997712E+00  3.758978949807E+00
  4.065761720333E+00  4.393958699177E+00  4.744541047345E+00  5.118443798932E+00
  5.516549935680E+00  5.939672303610E+00  6.388533259149E+00  6.863741957618E+00
  7.365769231258E+00  7.894920048368E+00  8.451303601070E+00  9.034801137988E+00
  9.645031740884E+00  1.028131634218E+01  1.094264039387E+01  1.128227405455E+01
  1.162761572807E+01  1.197842723524E+01  1.233444229466E+01  1.269536538143E+01
  1.306087062157E+01  1.343060073185E+01  1.380416601543E+01  1.418114342449E+01
  1.456107570193E+01  1.494347061449E+01  1.532780029085E+01  1.571350067851E+01
  1.609997113411E+01  1.648657416224E+01  1.687263531837E+01  1.725744329183E+01
  1.764025018520E+01  1.802027200639E+01  1.839668939010E+01  1.876864856483E+01
  1.913526258155E+01  1.949561281974E+01  1.984875078553E+01  2.019370021604E+01
  2.052945950265E+01  2.085500444470E+01  2.116929134313E+01  2.147126044180E+01
  2.175983972184E+01  2.203394905152E+01  2.229250469161E+01  2.253442415222E+01
  2.275863139417E+01  2.296406236334E+01  2.314967084258E+01  2.331443460083E+01
  2.345736181450E+01  2.357749773080E+01  2.367393153750E+01  2.374580339809E+01
  2.379231160570E+01  2.381271980361E+01  2.380636421451E+01  2.377266081536E+01
  2.371111238952E+01  2.362131538294E+01  2.350296648690E+01  2.335586886603E+01
  2.317993794715E+01  2.297520668251E+01  2.274183019955E+01  2.248008974926E+01
  2.219039586640E+01  2.187329065729E+01  2.152944913479E+01  2.115967952582E+01
  2.076492248357E+01  2.034624914594E+01  1.990485799190E+01  1.944207045995E+01
  1.895932530684E+01  1.845817170016E+01  1.794026105544E+01  1.740733764651E+01
  1.686122803720E+01  1.630382940237E+01  1.573709682662E+01  1.516302968934E+01
  1.458365726500E+01  1.400102368635E+01  1.341717243622E+01  1.283413054958E+01
  1.225389272101E+01  1.167840552342E+01  1.110955195151E+01  1.054913650692E+01
  9.998871041595E+00  9.460361571065E+00  8.935096259821E+00  8.424434766656E+00
  7.929599119131E+00  7.451666262864E+00  6.991562403940E+00  6.550059231565E+00
  6.127772073971E+00  5.725160004176E+00  5.342527874457E+00  4.980030220329E+00
  4.637676937448E+00  4.315340599353E+00  4.012765251386E+00  3.729576487594E+00
  3.465292593813E+00  3.219336522379E+00  2.991048452606E+00  2.779698686678E+00
  2.584500633240E+00  2.404623640438E+00  2.239205456262E+00  2.087364115937E+00
  1.948209083045E+00  1.820851501770E+00  1.704413450955E+00  1.598036125078E+00
  1.500886901419E+00  1.412165285244E+00  1.331107754429E+00  1.256991550744E+00
  1.189137485974E+00  1.126911846880E+00  1.069727493443E+00  1.017044249976E+00
  9.683686891445E-01  9.232534051674E-01  8.812958655629E-01  8.421367476757E-01
  8.054572753438E-01  7.709759323054E-01  7.384460874818E-01  7.076539148349E-01
  6.784156030471E-01  6.505744712775E-01  6.239985116171E-01  5.985781715647E-01
  5.742240434975E-01  5.508646721932E-01  5.284436943237E-01  5.069142784523E-01
  4.862328873152E-01  4.663582330185E-01  4.472520256670E-01  4.288783795770E-01
  4.112037287868E-01  3.941966722634E-01  3.778278320470E-01  3.620697175286E-01
  3.468965957827E-01  3.322843679869E-01  3.182104519109E-01  3.046536704366E-01
  2.915941460429E-01  2.790132011705E-01  2.668932643590E-01  2.552177820354E-01
  2.439711358133E-01  2.331385651581E-01  2.227060952329E-01  2.126604697960E-01
  2.029890889286E-01  1.936799514251E-01  1.847216016535E-01  1.761030806892E-01
  1.678138815245E-01  1.598439081553E-01  1.521834383448E-01  1.448230898652E-01
  1.377537900191E-01  1.309667482446E-01  1.244534316105E-01  1.182055430119E-01
  1.122150018796E-01  1.064739272227E-01  1.009746228266E-01  9.570956443531E-02
  9.067138875395E-02  8.585288411138E-02  8.124698262989E-02  7.684675375640E-02
  7.264539901590E-02  6.863624785487E-02  6.481275444971E-02  6.116849536252E-02
  5.769716793343E-02  5.439258930637E-02  5.124869599176E-02  4.825954387720E-02
  4.541930860365E-02  4.272228623150E-02  4.016289412751E-02  3.773567200981E-02
  3.543528309397E-02  3.325651528928E-02  3.119428239947E-02  2.924362528741E-02
  2.739971296820E-02  2.565784359942E-02  2.401344534173E-02  2.246207706699E-02
  2.099942889434E-02  1.962132253871E-02  1.832371145883E-02  1.710268079522E-02
  1.595444709091E-02  1.487535779017E-02  1.386189051393E-02  1.291065211150E-02
  1.201837749068E-02  1.118192823064E-02  1.039829098320E-02  9.664575670252E-03
  8.978013486168E-03  8.335954715621E-03  7.735866378414E-03  7.175329713865E-03
  6.652037518283E-03  6.163791349715E-03  5.708498614714E-03  5.284169552285E-03
  4.888914130312E-03  4.520938869900E-03  4.178543612871E-03  3.860118247477E-03
  3.564139406943E-03  3.289167154969E-03  3.033841671669E-03  2.796879952741E-03
  2.577072533815E-03  2.373280251104E-03  2.184431048553E-03  2.009516840745E-03
  1.847590439862E-03  1.697762554044E-03  1.559198863531E-03  1.431117180040E-03
  1.312784693928E-03  1.203515312829E-03  1.102667094616E-03  1.009639776796E-03
  9.238724036932E-04  8.448410521448E-04  7.720566558034E-04  7.050629276098E-04
  6.434343795032E-04  5.867744380039E-04  5.347136539236E-04  4.869080041313E-04
  4.430372830233E-04  4.028035811120E-04  3.659298479555E-04  3.321585364987E-04
  3.012503257758E-04  2.729829188399E-04  2.471499127266E-04  2.235597372257E-04
  2.020346592269E-04  1.824098494154E-04  1.645325081234E-04  1.482610471852E-04
  1.334643247171E-04  1.200209297884E-04  1.078185140054E-04  9.675316752245E-05
  8.672883573246E-05  7.765677517283E-05  6.945504759760E-05  6.204804373429E-05
  5.536603887940E-05  4.934478384372E-05  4.392511999865E-05  3.905261683318E-05
  3.467723579209E-05  3.075301677785E-05  2.723778469425E-05  2.409287514589E-05
  2.128287806614E-05  1.877539804500E-05  1.654083025671E-05  1.455215097415E-05
  1.278472173966E-05  1.121610633701E-05  9.825899777944E-06  8.595568578322E-06
  7.508301654417E-06  6.548871219418E-06  5.703503104011E-06  4.959755963903E-06
  4.306408871463E-06  3.733356818963E-06  3.231513687712E-06  2.792722261085E-06
  2.409670880613E-06  2.075816363236E-06  1.785312815039E-06  1.532945992482E-06
  1.314072876743E-06  1.124566140472E-06  9.607631992652E-07  8.194195526903E-07
  6.976661318429E-07  5.929703823183E-07  5.031008232120E-07  4.260948343742E-07
  3.602294356570E-07  3.039948333343E-07  2.560705202334E-07  2.153037273781E-07
  1.806900360863E-07  1.513559704611E-07  1.265434010268E-07  1.055956008584E-07
  8.794480589709E-08  7.310114120459E-08  6.064278464894E-08  5.020724891005E-08
  4.148367171650E-08  3.420601285644E-08  2.814706472817E-08  2.311319099734E-08
  1.893971530095E-08  1.548688887826E-08  1.263637251720E-08  1.028817428382E-08
  8.357990160490E-09  6.774899964695E-09  5.479375766811E-09  4.421564487375E-09
  3.559810447239E-09  2.859387385761E-09  2.291412870965E-09  1.831921120631E-09
  1.461073054004E-09  1.162484919812E-09  9.226591170804E-10  7.305028599361E-10
  5.769221548705E-10  4.544801768560E-10  3.571105664882E-10  2.798774405059E-10
  2.187750281110E-10  1.705608301458E-10  1.326170610216E-10  1.028358870452E-10
  7.952463117442E-11  6.132768405912E-11  4.716235433579E-11  3.616631655551E-11
  2.765468096164E-11  2.108502296148E-11  1.602897815216E-11  1.214923707671E-11
  9.180967763416E-12  6.916858210740E-12  5.195109445561E-12  3.889826235590E-12
  2.903350159098E-12  2.160161304724E-12  1.602042806941E-12  1.184258811573E-12
  8.725431163040E-13  6.407341956947E-13  4.689239280290E-13  3.420132259630E-13
  2.485888979063E-13  1.800532476752E-13  1.299518430650E-13  9.345613391442E-14
  6.696663139884E-14  4.780964621797E-14  3.400634577030E-14  2.409752556924E-14
  1.701114036182E-14  1.196253184162E-14  8.379564480123E-15  5.846664365450E-15
  4.063148731255E-15  2.812317368542E-15  1.938616690249E-15  1.330835181706E-15
  9.097870326162E-16  6.193220237416E-16  4.197904132613E-16  2.833122405127E-16
  1.903672887106E-16  1.273475254523E-16  8.480796056703E-17  5.622209698185E-17
  3.710033156015E-17  2.436825736728E-17  1.593023531380E-17  1.036443032252E-17
  6.710701383662E-18  4.323766780611E-18  2.248924114966E-18  0.000000000000E+00
  0.000000000000E+00  0.000000000000E+00  0.000000000000E+00  0.000000000000E+00
  0.000000000000E+00  0.000000000000E+00
</data>
</radfunc>
</valence-charge>
<pseudocore-charge matching-radius="0.698500950434"
 number-of-continuous-derivatives="4">
<annotation model-charge-form="Teter function with specified parameters" />
<radfunc>
<data npts="291">
  1.224359602209E+02  1.224258260944E+02  1.223945569309E+02  1.223428014594E+02
  1.222708519971E+02  1.221762608754E+02  1.220557299912E+02  1.219177450730E+02
  1.217626383234E+02  1.215818161559E+02  1.213780719904E+02  1.211567043193E+02
  1.208892916631E+02  1.206101504464E+02  1.203314423663E+02  1.200105920445E+02
  1.196413600786E+02  1.192916012797E+02  1.188986779720E+02  1.184574263874E+02
  1.179621088749E+02  1.175226735933E+02  1.170410082236E+02  1.165132488620E+02
  1.159352188533E+02  1.153024122439E+02  1.146099784202E+02  1.140484030578E+02
  1.134480316548E+02  1.128064120737E+02  1.121209722620E+02  1.113890200684E+02
  1.106077441958E+02  1.097742165112E+02  1.088853959571E+02  1.079381343424E+02
  1.069291843188E+02  1.058552098826E+02  1.051014202962E+02  1.043161900743E+02
  1.034984841865E+02  1.026472615210E+02  1.017614782226E+02  1.008400914414E+02
  9.988206352459E+01  9.888636667949E+01  9.785198813938E+01  9.677793586205E+01
  9.566324479059E+01  9.450698370538E+01  9.330826269394E+01  9.206624126364E+01
  9.078013711865E+01  8.944923561884E+01  8.807289993325E+01  8.665058189448E+01
  8.518183355319E+01  8.366631942263E+01  8.210382939327E+01  8.049429228474E+01
  7.883778998909E+01  7.713457214277E+01  7.538507124715E+01  7.358991813697E+01
  7.174995767380E+01  6.986626451695E+01  6.794015879740E+01  6.696168468190E+01
  6.597322149151E+01  6.497501004079E+01  6.396730926063E+01  6.295039661367E+01
  6.192456849020E+01  6.089014058165E+01  5.984744822905E+01  5.879684674342E+01
  5.773871169510E+01  5.667343916873E+01  5.560144598067E+01  5.452316985542E+01
  5.343906955742E+01  5.234962497480E+01  5.125533715114E+01  5.015672826159E+01
  4.905434152957E+01  4.794874107997E+01  4.684051172515E+01  4.573025867964E+01
  4.461860719981E+01  4.350620214460E+01  4.239370745345E+01  4.128180553795E+01
  4.017119658347E+01  3.906259775756E+01  3.795674232193E+01  3.685437864501E+01
  3.575626911268E+01  3.466318893469E+01  3.357592484506E+01  3.249527369492E+01
  3.142204093688E+01  3.035703900053E+01  2.930108555917E+01  2.825500168880E+01
  2.721960992073E+01  2.619573219022E+01  2.518418768434E+01  2.418579059291E+01
  2.320134776770E+01  2.223165629555E+01  2.127750099255E+01  2.033965182724E+01
  1.941886128181E+01  1.851586166172E+01  1.763136236498E+01  1.676604712364E+01
  1.592057123116E+01  1.509555877053E+01  1.429159985901E+01  1.350924792653E+01
  1.274901704576E+01  1.201137933285E+01  1.129676243868E+01  1.060554715113E+01
  9.938065129615E+00  9.294596793559E+00  8.675369386704E+00  8.080555239324E+00
  7.510270250278E+00  6.964572610486E+00  6.443461788778E+00  5.946877800239E+00
  5.474700775963E+00  5.026750851659E+00  4.602788390789E+00  4.202514555772E+00
  3.825572238381E+00  3.471547357666E+00  3.139970530683E+00  2.830319117897E+00
  2.542019641458E+00  2.274450570636E+00  2.026945464490E+00  1.798796457550E+00
  1.589258069773E+00  1.397551317480E+00  1.222868097408E+00  1.064375811480E+00
  9.212221955282E-01  7.925403110311E-01  6.774536550833E-01  5.750813403756E-01
  4.845432940119E-01  4.049654216455E-01  3.354846817501E-01  2.752540139492E-01
  2.234470652876E-01  1.792626592045E-01  1.419289538212E-01  1.107072390148E-01
  8.489532563982E-02  6.383048517033E-02  4.689190393920E-02  3.350262299104E-02
  2.313094225456E-02  1.529127616485E-02  9.544456881594E-03  5.497490684225E-03
  2.802782780221E-03  1.156855419323E-03  2.985936238984E-04  7.061774295445E-06
  9.894247073081E-05  4.256562763798E-04  8.702268873523E-04  1.343960752652E-03
  1.783012990203E-03  2.144912463356E-03  2.405117995547E-03  2.553674866700E-03
  2.592035976233E-03  2.530105466601E-03  2.383554342654E-03  2.171447931375E-03
  1.914214206830E-03  1.631970418792E-03  1.343213521337E-03  1.063868043817E-03
  8.066737406292E-04  5.808850525008E-04  3.922455375033E-04  2.431933612231E-04
  1.332489760528E-04  5.953347998349E-05  1.736592614398E-05  8.900344989678E-07
  3.685188238499E-06  1.932300584427E-05  4.183877676648E-05  6.609614833246E-05
  8.803309746824E-05  1.047868188715E-04  1.147041176056E-04  1.172516559635E-04
  1.128465007537E-04  1.026314953604E-04  8.822183724648E-05  7.144884100872E-05
  5.412435081028E-05  3.784494411179E-05  2.384939775443E-05  1.293643406971E-05
  5.443156104366E-06  1.278448181341E-06  5.349367106520E-10  9.243182099332E-07
  3.242343205991E-06  6.143383325156E-06  8.914567561994E-06  1.101639643383E-05
  1.212442711836E-05  1.213626998970E-05  1.114720102974E-05  9.401570210613E-06
  7.229802681532E-06  4.981854513141E-06  2.967425771705E-06  1.411211232642E-06
  4.283540419500E-07  2.158714427982E-08  0.000000000000E+00  0.000000000000E+00
  0.000000000000E+00  0.000000000000E+00  0.000000000000E+00  0.000000000000E+00
  0.000000000000E+00  0.000000000000E+00  0.000000000000E+00  0.000000000000E+00
  0.000000000000E+00  0.000000000000E+00  0.000000000000E+00  0.000000000000E+00
  0.000000000000E+00  0.000000000000E+00  0.000000000000E+00  0.000000000000E+00
  0.000000000000E+00  0.000000000000E+00  0.000000000000E+00  0.000000000000E+00
  0.000000000000E+00  0.000000000000E+00  0.000000000000E+00  0.000000000000E+00
  0.000000000000E+00  0.000000000000E+00  0.000000000000E+00  0.000000000000E+00
  0.000000000000E+00  0.000000000000E+00  0.000000000000E+00  0.000000000000E+00
  0.000000000000E+00  0.000000000000E+00  0.000000000000E+00  0.000000000000E+00
  0.000000000000E+00  0.000000000000E+00  0.000000000000E+00  0.000000000000E+00
  0.000000000000E+00  0.000000000000E+00  0.000000000000E+00  0.000000000000E+00
  0.000000000000E+00  0.000000000000E+00  0.000000000000E+00  0.000000000000E+00
  0.000000000000E+00  0.000000000000E+00  0.000000000000E+00  0.000000000000E+00
  0.000000000000E+00  0.000000000000E+00  0.000000000000E+00  0.000000000000E+00
  0.000000000000E+00  0.000000000000E+00  0.000000000000E+00
</data>
</radfunc>
</pseudocore-charge>
<semilocal-potentials set="lj">
<slps n="4" l="s" j="0.5" rc="1.66856993556" eref="-0.329323251844">
<radfunc>
<data npts="291">
  7.076268532390E+01  7.070358214176E+01  7.052170270794E+01  7.022226894124E+01
  6.980929500985E+01  6.927211054127E+01  6.859690215285E+01  6.783641265457E+01
  6.699707379225E+01  6.603870826224E+01  6.498396976358E+01  6.386706871940E+01
  6.255657977279E+01  6.123180978575E+01  5.995104475878E+01  5.852597033949E+01
  5.694789805792E+01  5.551071781337E+01  5.395916643573E+01  5.229139114437E+01
  5.050702076028E+01  4.899641374898E+01  4.741356651607E+01  4.576087659565E+01
  4.404161702401E+01  4.225995505287E+01  4.042094887585E+01  3.900759320043E+01
  3.756809625214E+01  3.610549764986E+01  3.462305355795E+01  3.312421003949E+01
  3.161257262061E+01  3.009187260484E+01  2.856593079130E+01  2.703861934619E+01
  2.551382264710E+01  2.399539796087E+01  2.298853104597E+01  2.198728288485E+01
  2.099272798753E+01  2.000591148425E+01  1.902784502445E+01  1.805950300037E+01
  1.710181912549E+01  1.615568339292E+01  1.522193943357E+01  1.430138228840E+01
  1.339475660371E+01  1.250275525306E+01  1.162601838431E+01  1.076513288530E+01
  9.920632257418E+00  9.092996881913E+00  8.282654660366E+00  7.489982007546E+00
  6.715305172124E+00  5.958901858665E+00  5.221003122591E+00  4.501795508677E+00
  3.801423402885E+00  3.119991567035E+00  2.457567825871E+00  1.814185876395E+00
  1.189848189956E+00  5.845289782702E-01 -1.822804637643E-03 -2.879080274338E-01
 -5.692804518807E-01 -8.459522247054E-01 -1.117936511253E+00 -1.385247404817E+00
 -1.647899837292E+00 -1.905909491353E+00 -2.159292714380E+00 -2.408066434358E+00
 -2.652248077971E+00 -2.891855491142E+00 -3.126906862251E+00 -3.357420648315E+00
 -3.583415504382E+00 -3.804910216421E+00 -4.021923638052E+00 -4.234474631393E+00
 -4.442582012371E+00 -4.646264500869E+00 -4.845540676065E+00 -5.040428937373E+00
 -5.230947471373E+00 -5.417114225180E+00 -5.598946886679E+00 -5.776462872079E+00
 -5.949679321246E+00 -6.118613101266E+00 -6.283280818696E+00 -6.443698840929E+00
 -6.599883327071E+00 -6.751850268713E+00 -6.899615540879E+00 -7.043194963406E+00
 -7.182604372891E+00 -7.317859705232E+00 -7.448977088688E+00 -7.575972947192E+00
 -7.698864113535E+00 -7.817667951809E+00 -7.932402488359E+00 -8.043086550237E+00
 -8.149739910014E+00 -8.252383435560E+00 -8.351039243259E+00 -8.445730852961E+00
 -8.536483342820E+00 -8.623323502123E+00 -8.706279980112E+00 -8.785383428825E+00
 -8.860666638013E+00 -8.932164660253E+00 -8.999914924511E+00 -9.063957336533E+00
 -9.124334364610E+00 -9.181091109395E+00 -9.234275356617E+00 -9.283937611599E+00
 -9.330131114555E+00 -9.372911835621E+00 -9.412338448423E+00 -9.448472280840E+00
 -9.481377241223E+00 -9.511119718004E+00 -9.537768450021E+00 -9.561394364331E+00
 -9.582070377580E+00 -9.599871156298E+00 -9.614872830792E+00 -9.627152656738E+00
 -9.636788618197E+00 -9.643858965778E+00 -9.648441684209E+00 -9.650613884967E+00
 -9.650451122096E+00 -9.648026633266E+00 -9.643410513808E+00 -9.636668839195E+00
 -9.627862761125E+00 -9.617047613913E+00 -9.604272080396E+00 -9.589577478676E+00
 -9.572997240733E+00 -9.554556658461E+00 -9.534272969116E+00 -9.512155837578E+00