<?xml version="1.0" encoding="UTF-8" ?>
<psml version="1.1" energy_unit="hartree" length_unit="bohr"
 uuid="d480e550-53a0-11e8-4b0e-8dbf6fb48e62"
 xmlns="http://esl.cecam.org/PSML/ns/1.1">
<provenance creator="ONCVPSP-3.3.0+psml-3.3.0-73 (fully-relativistic)"
 date="2018-05-09">
<annotation action="semilocal-pseudopotential-generation"
 action-cont="projectors-generation" />
<input-file name="oncvpsp-input">
<![CDATA[# atsym z nc nv iexc psfile
Ga 31 3 5 -116133 upf
# n l f
1 0 2.0
2 0 2.0
2 1 6.0
3 0 2.0
3 1 6.0
3 2 10.0
4 0 2.0
4 1 1.0
# lmax
2
# l rc ep ncon nbas qcut
0 1.2 0.0 4 7 9.4
1 1.3 0.0 4 7 10.6
2 1.5 0.0 4 7 10.6
# lloc lpopt rc5 dvloc0
4 5 1.2 0.0
# l nproj debl
0 2 1.0
1 2 1.0
2 2 3.0
# icmod fcfact rcfact
3 3.0 1.5
# epsh1 epsh2 depsh
-12.0 12.0 0.02
# rlmax drl
6.0 0.01
 0
]]>
</input-file>
</provenance>
<pseudo-atom-spec atomic-label="Ga" atomic-number="31" z-pseudo="21"
 flavor="Hamann&apos;s oncvpsp" relativity="dirac" spin-dft="no"
 core-corrections="yes">
<annotation pseudo-energy="-244.948097217" />
<exchange-correlation>
<annotation oncvpsp-xc-code="-116133" oncvpsp-xc-type="libxc-interface" />
<libxc-info number-of-functionals="2">
<functional name="Perdew, Burke &amp; Ernzerhof SOL (GGA)" type="exchange"
 id="116" />
<functional name="Perdew, Burke &amp; Ernzerhof SOL (GGA)" type="correlation"
 id="133" />
</libxc-info>
</exchange-correlation>
<valence-configuration total-valence-charge="21">
<shell n="3" l="s" occupation="2" />
<shell n="3" l="p" occupation="6" />
<shell n="3" l="d" occupation="10" />
<shell n="4" l="s" occupation="2" />
<shell n="4" l="p" occupation="1" />
</valence-configuration>
</pseudo-atom-spec>
<grid npts="458">
<annotation type="sampled from oncvpsp log grid"
 recipe="r(i:1..N) = r1*exp(a*(i-1)) + r=0; resampled"
 recipe-cont="r1: scale; a: step" scale="0.161290322581E-04"
 step="0.119285708653E-01" delta="0.500000000000E-02" rmax="44.3593682749" />
<grid-data>
  0.000000000000E+00  5.005354308404E-03  1.011777605404E-02  1.517827746610E-02
  2.020946365338E-02  2.535038301076E-02  3.068122710716E-02  3.582773785855E-02
  4.085121947787E-02  4.602673310278E-02  5.124302544502E-02  5.637400155005E-02
  6.201874349076E-02  6.741965885400E-02  7.242185184910E-02  7.779518191586E-02
  8.356718552202E-02  8.870300612650E-02  9.415446082966E-02  9.994094767748E-02
  1.060830568691E-01  1.112674348058E-01  1.167051781279E-01  1.224086690381E-01
  1.283908948690E-01  1.346654776560E-01  1.412467051564E-01  1.463928491930E-01
  1.517264864416E-01  1.572544479790E-01  1.629838137635E-01  1.689219217026E-01
  1.750763770511E-01  1.814550621518E-01  1.880661465305E-01  1.949180973592E-01
  2.020196903006E-01  2.093800207477E-01  2.144352919686E-01  2.196126176579E-01
  2.249149446987E-01  2.303452911235E-01  2.359067478323E-01  2.416024803520E-01
  2.474357306376E-01  2.534098189181E-01  2.595281455861E-01  2.657941931331E-01
  2.722115281321E-01  2.787838032674E-01  2.855147594134E-01  2.924082277647E-01
  2.994681320159E-01  3.066984905953E-01  3.141034189522E-01  3.216871318994E-01
  3.294539460120E-01  3.374082820845E-01  3.455546676471E-01  3.538977395428E-01
  3.624422465663E-01  3.711930521674E-01  3.801551372189E-01  3.893336028520E-01
  3.987336733592E-01  4.083606991688E-01  4.182201598895E-01  4.232388018082E-01
  4.283176674299E-01  4.334574794391E-01  4.386589691923E-01  4.439228768226E-01
  4.492499513445E-01  4.546409507606E-01  4.600966421698E-01  4.656178018758E-01
  4.712052154983E-01  4.768596780843E-01  4.825819942213E-01  4.883729781520E-01
  4.942334538898E-01  5.001642553365E-01  5.061662264005E-01  5.122402211173E-01
  5.183871037707E-01  5.246077490160E-01  5.309030420042E-01  5.372738785082E-01
  5.437211650503E-01  5.502458190309E-01  5.568487688593E-01  5.635309540856E-01
  5.702933255346E-01  5.771368454410E-01  5.840624875863E-01  5.910712374374E-01
  5.981640922866E-01  6.053420613940E-01  6.126061661308E-01  6.199574401243E-01
  6.273969294058E-01  6.349256925587E-01  6.425448008694E-01  6.502553384798E-01
  6.580584025416E-01  6.659551033721E-01  6.739465646126E-01  6.820339233879E-01
  6.902183304686E-01  6.985009504342E-01  7.068829618394E-01  7.153655573815E-01
  7.239499440701E-01  7.326373433989E-01  7.414289915197E-01  7.503261394179E-01
  7.593300530909E-01  7.684420137280E-01  7.776633178928E-01  7.869952777075E-01
  7.964392210400E-01  8.059964916924E-01  8.156684495928E-01  8.254564709879E-01
  8.353619486397E-01  8.453862920234E-01  8.555309275277E-01  8.657972986580E-01
  8.761868662419E-01  8.867011086368E-01  8.973415219405E-01  9.081096202037E-01
  9.190069356462E-01  9.300350188739E-01  9.411954391004E-01  9.524897843696E-01
  9.639196617821E-01  9.754866977235E-01  9.871925380961E-01  9.990388485533E-01
  1.011027314736E+00  1.023159642513E+00  1.035437558223E+00  1.047862808922E+00
  1.060437162629E+00  1.073162408580E+00  1.086040357483E+00  1.099072841773E+00
  1.112261715874E+00  1.125608856465E+00  1.139116162742E+00  1.152785556695E+00
  1.166618983376E+00  1.180618411176E+00  1.194785832110E+00  1.209123262095E+00
  1.223632741241E+00  1.238316334136E+00  1.253176130145E+00  1.268214243707E+00
  1.283432814631E+00  1.298834008407E+00  1.314420016508E+00  1.330193056706E+00
  1.346155373386E+00  1.362309237867E+00  1.378656948721E+00  1.395200832106E+00
  1.411943242091E+00  1.428886560996E+00  1.446033199728E+00  1.463385598125E+00
  1.480946225303E+00  1.498717580006E+00  1.516702190966E+00  1.534902617258E+00
  1.553321448665E+00  1.571961306049E+00  1.590824841722E+00  1.609914739822E+00
  1.629233716700E+00  1.648784521301E+00  1.668569935556E+00  1.688592774783E+00
  1.708855888080E+00  1.729362158737E+00  1.750114504642E+00  1.771115878698E+00
  1.792369269242E+00  1.813877700473E+00  1.835644232879E+00  1.857671963673E+00
  1.879964027237E+00  1.902523595564E+00  1.925353878711E+00  1.948458125255E+00
  1.971839622759E+00  1.995501698232E+00  2.019447718610E+00  2.043681091234E+00
  2.068205264329E+00  2.093023727500E+00  2.118140012230E+00  2.143557692377E+00
  2.169280384686E+00  2.195311749302E+00  2.221655490294E+00  2.248315356177E+00
  2.275295140451E+00  2.302598682137E+00  2.330229866322E+00  2.358192624718E+00
  2.386490936215E+00  2.415128827449E+00  2.444110373379E+00  2.473439697859E+00
  2.503120974234E+00  2.533158425924E+00  2.563556327036E+00  2.594319002960E+00
  2.625450830996E+00  2.656956240967E+00  2.688839715859E+00  2.721105792449E+00
  2.753759061959E+00  2.786804170702E+00  2.820245820751E+00  2.854088770600E+00
  2.888337835847E+00  2.922997889877E+00  2.958073864556E+00  2.993570750930E+00
  3.029493599941E+00  3.065847523141E+00  3.102637693418E+00  3.139869345739E+00
  3.177547777888E+00  3.215678351223E+00  3.254266491438E+00  3.293317689335E+00
  3.332837501607E+00  3.372831551626E+00  3.413305530246E+00  3.454265196609E+00
  3.495716378968E+00  3.537664975516E+00  3.580116955222E+00  3.623078358684E+00
  3.666555298989E+00  3.710553962577E+00  3.755080610127E+00  3.800141577449E+00
  3.845743276378E+00  3.891892195695E+00  3.938594902043E+00  3.985858040868E+00
  4.033688337358E+00  4.082092597406E+00  4.131077708575E+00  4.180650641078E+00
  4.230818448771E+00  4.281588270156E+00  4.332967329398E+00  4.384962937351E+00
  4.437582492599E+00  4.490833482510E+00  4.544723484301E+00  4.599260166112E+00
  4.654451288106E+00  4.710304703563E+00  4.766828360006E+00  4.824030300326E+00
  4.881918663930E+00  4.940501687897E+00  4.999787708151E+00  5.059785160649E+00
  5.120502582577E+00  5.181948613568E+00  5.244131996931E+00  5.307061580894E+00
  5.370746319865E+00  5.435195275703E+00  5.500417619012E+00  5.566422630440E+00
  5.633219702005E+00  5.700818338429E+00  5.769228158490E+00  5.838458896392E+00
  5.908520403149E+00  5.979422647987E+00  6.051175719762E+00  6.123789828400E+00
  6.197275306340E+00  6.271642610016E+00  6.346902321337E+00  6.423065149193E+00
  6.500141930983E+00  6.578143634155E+00  6.657081357765E+00  6.736966334058E+00
  6.817809930066E+00  6.899623649227E+00  6.982419133018E+00  7.066208162614E+00
  7.151002660566E+00  7.236814692492E+00  7.323656468802E+00  7.411540346428E+00
  7.500478830585E+00  7.590484576552E+00  7.681570391471E+00  7.773749236168E+00
  7.867034227002E+00  7.961438637726E+00  8.056975901379E+00  8.153659612196E+00
  8.251503527542E+00  8.350521569872E+00  8.450727828711E+00  8.552136562655E+00
  8.654762201407E+00  8.758619347824E+00  8.863722779998E+00  8.970087453358E+00
  9.077728502798E+00  9.186661244832E+00  9.296901179770E+00  9.408463993927E+00
  9.521365561854E+00  9.635621948597E+00  9.751249411980E+00  9.868264404924E+00
  9.986683577783E+00  1.010652378072E+01  1.022780206608E+01  1.035053569088E+01
  1.047474211917E+01  1.060043902460E+01  1.072764429289E+01  1.085637602441E+01
  1.098665253670E+01  1.111849236714E+01  1.125191427555E+01  1.138693724685E+01
  1.152358049382E+01  1.166186345974E+01  1.180180582126E+01  1.194342749111E+01
  1.208674862101E+01  1.223178960446E+01  1.237857107971E+01  1.252711393267E+01
  1.267743929986E+01  1.282956857146E+01  1.298352339432E+01  1.313932567505E+01
  1.329699758315E+01  1.345656155415E+01  1.361804029280E+01  1.378145677631E+01
  1.394683425763E+01  1.411419626872E+01  1.428356662394E+01  1.445496942343E+01
  1.462842905651E+01  1.480397020519E+01  1.498161784765E+01  1.516139726182E+01
  1.534333402896E+01  1.552745403731E+01  1.571378348576E+01  1.590234888759E+01
  1.609317707424E+01  1.628629519913E+01  1.648173074152E+01  1.667951151042E+01
  1.687966564854E+01  1.708222163633E+01  1.728720829596E+01  1.749465479551E+01
  1.770459065306E+01  1.791704574090E+01  1.813205028979E+01  1.834963489327E+01
  1.856983051198E+01  1.879266847813E+01  1.901818049987E+01  1.924639866586E+01
  1.947735544985E+01  1.971108371525E+01  1.994761671984E+01  2.018698812047E+01
  2.042923197792E+01  2.067438276165E+01  2.092247535479E+01  2.117354505905E+01
  2.142762759976E+01  2.168475913096E+01  2.194497624053E+01  2.220831595542E+01
  2.247481574688E+01  2.274451353584E+01  2.301744769827E+01  2.329365707065E+01
  2.357318095550E+01  2.385605912697E+01  2.414233183649E+01  2.443203981853E+01
  2.472522429635E+01  2.502192698791E+01  2.532219011176E+01  2.562605639310E+01
  2.593356906982E+01  2.624477189866E+01  2.655970916144E+01  2.687842567138E+01
  2.720096677944E+01  2.752737838079E+01  2.785770692136E+01  2.819199940441E+01
  2.853030339727E+01  2.887266703803E+01  2.921913904249E+01  2.956976871100E+01
  2.992460593553E+01  3.028370120676E+01  3.064710562124E+01  3.101487088870E+01
  3.138704933936E+01  3.176369393143E+01  3.214485825861E+01  3.253059655771E+01
  3.292096371640E+01  3.331601528100E+01  3.371580746437E+01  3.412039715395E+01
  3.452984191979E+01  3.494420002283E+01  3.536353042311E+01  3.578789278818E+01
  3.621734750164E+01  3.665195567166E+01  3.709177913972E+01  3.753688048940E+01
  3.798732305527E+01  3.844317093193E+01  3.890448898312E+01  3.937134285091E+01
  3.984379896512E+01  4.032192455271E+01  4.080578764734E+01  4.129545709911E+01
  4.179100258430E+01  4.229249461531E+01  4.280000455069E+01  4.331360460530E+01
  4.383336786056E+01  4.435936827489E+01
</grid-data>
</grid>
<valence-charge total-charge="21" is-unscreening-charge="yes"
 rescaled-to-z-pseudo="no">
<radfunc>
<data npts="458">
  2.929884194977E+01  2.931213235912E+01  2.935313553453E+01  2.942098677808E+01
  2.951527996592E+01  2.963918874190E+01  2.979698217706E+01  2.997749430633E+01
  3.018023674936E+01  3.041636531729E+01  3.068213156737E+01  3.097052802630E+01
  3.131840871413E+01  3.168095307217E+01  3.204232151354E+01  3.245756164386E+01
  3.293438255696E+01  3.338501943947E+01  3.389004746616E+01  3.445562283824E+01
  3.508848123815E+01  3.564811971358E+01  3.625953493362E+01  3.692700533905E+01
  3.765504490806E+01  3.844838585193E+01  3.931195106148E+01  4.000875724808E+01
  4.075009417870E+01  4.153815234773E+01  4.237511311620E+01  4.326312219140E+01
  4.420425748683E+01  4.520049051293E+01  4.625364036321E+01  4.736531927797E+01
  4.853686869402E+01  4.976928463060E+01  5.062500925931E+01  5.150808776122E+01
  5.241844126468E+01  5.335585563631E+01  5.431996419202E+01  5.531022900793E+01
  5.632592080183E+01  5.736609737319E+01  5.842958061214E+01  5.951493211531E+01
  6.062042747987E+01  6.174402938816E+01  6.288335964304E+01  6.403567037112E+01
  6.519781467707E+01  6.636621710796E+01  6.753684437294E+01  6.870517686058E+01
  6.986618160374E+01  7.101428745966E+01  7.214336340011E+01  7.324670094057E+01
  7.431700187747E+01  7.534637264307E+01  7.632632672549E+01  7.724779673004E+01
  7.810115776936E+01  7.887626395545E+01  7.956249981539E+01  7.986886203722E+01
  8.014884845075E+01  8.040103343376E+01  8.062397819576E+01  8.081623460879E+01
  8.097634938376E+01  8.110286859952E+01  8.119434259029E+01  8.124933119448E+01
  8.126640936590E+01  8.124417314537E+01  8.118124598774E+01  8.107628543607E+01
  8.092799013078E+01  8.073510713803E+01  8.049643957665E+01  8.021085451903E+01
  7.987729113587E+01  7.949476904999E+01  7.906239685882E+01  7.857938077961E+01
  7.804503336588E+01  7.745878223763E+01  7.682017876217E+01  7.612890661668E+01
  7.538479015798E+01  7.458780251956E+01  7.373807335106E+01  7.283589611067E+01
  7.188173481698E+01  7.087623016361E+01  6.982020489725E+01  6.871466835860E+01
  6.756082008511E+01  6.636005237528E+01  6.511395171685E+01  6.382429898479E+01
  6.249306832040E+01  6.112242461032E+01  5.971471949306E+01  5.827248583153E+01
  5.679843060311E+01  5.529542617343E+01  5.376649993648E+01  5.221482232256E+01
  5.064369319517E+01  4.905652667983E+01  4.745683449045E+01  4.584820784284E+01
  4.423429806909E+01  4.261879607132E+01  4.100541077765E+01  3.939784678667E+01
  3.779978140941E+01  3.621484133799E+01  3.464657918848E+01  3.309845018048E+01
  3.157378922769E+01  3.007578872101E+01  2.860747728865E+01  2.717169981545E+01
  2.577109899631E+01  2.440809868504E+01  2.308488928157E+01  2.180341537561E+01
  2.056536583494E+01  1.937216649170E+01  1.822497554028E+01  1.712468171699E+01
  1.607190528579E+01  1.506700180573E+01  1.411006860708E+01  1.320095385487E+01
  1.233926803180E+01  1.152439762915E+01  1.075552079562E+01  1.003162466046E+01
  9.351524021003E+00  8.713881065588E+00  8.117225792256E+00  7.559976781600E+00
  7.040461988637E+00  6.556939233692E+00  6.107616095093E+00  5.690668936363E+00
  5.304260836171E+00  4.946558229377E+00  4.615746110383E+00  4.310041694117E+00
  4.027706659550E+00  3.767058415302E+00  3.526479875404E+00  3.304426001781E+00
  3.099429003081E+00  2.910102028160E+00  2.735141630892E+00  2.573328730194E+00
  2.423527301506E+00  2.284681927125E+00  2.155817919130E+00  2.036040690864E+00
  1.924534542547E+00  1.820560872686E+00  1.723455851612E+00  1.632627585256E+00
  1.547552789840E+00  1.467772995118E+00  1.392890294612E+00  1.322560507534E+00
  1.256477644816E+00  1.194355544791E+00  1.135924420947E+00  1.080932729575E+00
  1.029145061130E+00  9.803415297918E-01  9.343169553273E-01  8.908800839983E-01
  8.498528301961E-01  8.110695398604E-01  7.743762769443E-01  7.396301338936E-01
  7.066985668899E-01  6.754587564157E-01  6.457969935164E-01  6.176080919776E-01
  5.907948264866E-01  5.652673967200E-01  5.409429171692E-01  5.177449324601E-01
  4.956029576984E-01  4.744520434627E-01  4.542323648550E-01  4.348888340095E-01
  4.163707353901E-01  3.986313831644E-01  3.816277998957E-01  3.653204157691E-01
  3.496727875403E-01  3.346513363804E-01  3.202251037813E-01  3.063655246804E-01
  2.930462169685E-01  2.802427865487E-01  2.679326471269E-01  2.560948539298E-01
  2.447099505628E-01  2.337598282433E-01  2.232275966644E-01  2.130974657725E-01
  2.033546377650E-01  1.939852086424E-01  1.849760786765E-01  1.763148711830E-01
  1.679898590163E-01  1.599898982306E-01  1.523043683789E-01  1.449231189486E-01
  1.378364214594E-01  1.310349267746E-01  1.245096272002E-01  1.182518229751E-01
  1.122530927725E-01  1.065052678629E-01  1.010004096047E-01  9.573078995150E-02
  9.068887468838E-02  8.586730912332E-02  8.125890598301E-02  7.685663527723E-02
  7.265361591441E-02  6.864310886618E-02  6.481851169454E-02  6.117335426965E-02
  5.770129552008E-02  5.439612107065E-02  5.125174163510E-02  4.826219204290E-02
  4.542163079038E-02  4.272434001670E-02  4.016472581514E-02  3.773731879919E-02
  3.543677485139E-02  3.325787599094E-02  3.119553130327E-02  2.924477788177E-02
  2.740078173795E-02  2.565883864212E-02  2.401437486214E-02  2.246294777228E-02
  2.100024630917E-02  1.962209125539E-02  1.832443533526E-02  1.710336311121E-02
  1.595509067049E-02  1.487596509771E-02  1.386246372901E-02  1.291119318696E-02
  1.201888819759E-02  1.118241019289E-02  1.039874570407E-02  9.665004552740E-03
  8.978417848423E-03  8.336335802744E-03  7.736225371380E-03  7.175667736319E-03
  6.652355641714E-03  6.164090597428E-03  5.708779964921E-03  5.284433940536E-03
  4.889162451477E-03  4.521171979808E-03  4.178762329729E-03  3.860323353133E-03
  3.564331648053E-03  3.289347244092E-03  3.034010288337E-03  2.797037744504E-03
  2.577220117276E-03  2.373418212956E-03  2.184559946612E-03  2.009637204984E-03
  1.847702773447E-03  1.697867334359E-03  1.559296543204E-03  1.431208187957E-03
  1.312869436230E-03  1.203594173896E-03  1.102740438036E-03  1.009707946302E-03
  9.239357240891E-04  8.448998301948E-04  7.721111810995E-04  7.051134734093E-04
  6.434812035368E-04  5.868177832530E-04  5.347537493678E-04  4.869450654647E-04
  4.430715133403E-04  4.028351715627E-04  3.659589783717E-04  3.321853759902E-04
  3.012750332983E-04  2.730056437360E-04  2.471707952393E-04  2.235789089869E-04
  2.020522437209E-04  1.824259624193E-04  1.645472581248E-04  1.482745357787E-04
  1.334766469805E-04  1.200321746403E-04  1.078287645439E-04  9.676250134731E-05
  8.673732525108E-05  7.766448789087E-05  6.946204639560E-05  6.205438713049E-05
  5.537178127970E-05  4.934997577988E-05  4.392980835530E-05  3.905684506371E-05
  3.468104412435E-05  3.075644241012E-05  2.724086198204E-05  2.409563577973E-05
  2.128535124099E-05  1.877761062145E-05  1.654280691434E-05  1.455391435735E-05
  1.278629259613E-05  1.121750364928E-05  9.827140887987E-06  8.596669305610E-06
  7.509276407610E-06  6.549733101839E-06  5.704264013149E-06  4.960426685127E-06
  4.306999166141E-06  3.733875507188E-06  3.231968725824E-06  2.793120814193E-06
  2.410019390304E-06  2.076120610681E-06  1.785577979688E-06  1.533176706552E-06
  1.314273275698E-06  1.124739909691E-06  9.609136171031E-07  8.195495301238E-07
  6.977782488940E-07  5.930669214480E-07  5.031837998700E-07  4.261660248860E-07
  3.602904026247E-07  3.040469487231E-07  2.561149863075E-07  2.153415956446E-07
  1.807222243985E-07  1.513832784258E-07  1.265665238520E-07  1.056151417724E-07
  8.796128725964E-08  7.311501442688E-08  6.065443902872E-08  5.021701948321E-08
  4.149184621834E-08  3.421283787942E-08  2.815275115622E-08  2.311791879067E-08
  1.894363769903E-08  1.549013608317E-08  1.263905491387E-08  1.029038524878E-08
  8.359808505943E-09  6.776392059973E-09  5.480597375554E-09  4.422562354567E-09
  3.560623666847E-09  2.860048576412E-09  2.291949184101E-09  1.832355102880E-09
  1.461423382971E-09  1.162767030315E-09  9.228857327721E-10  7.306844434547E-10
  5.770672880228E-10  4.545958808688E-10  3.572025710712E-10  2.799504093076E-10
  2.188327471320E-10  1.706063647715E-10  1.326528865459E-10  1.028639968612E-10
  7.954662620773E-11  6.134484648694E-11  4.717570818333E-11  3.617667736303E-11
  2.766269637662E-11  2.109120581763E-11  1.603373334689E-11  1.215288334487E-11
  9.183755263826E-12  6.918982687579E-12  5.196723596979E-12  3.891048812043E-12
  2.904273222070E-12  2.160855999496E-12  1.602563938969E-12  1.184648462718E-12
  8.728334930334E-13  6.409498649844E-13  4.690835667424E-13  3.421309849566E-13
  2.486754620880E-13  1.801166569433E-13  1.299981258504E-13  9.348979437967E-14
  6.699102275930E-14  4.782725577339E-14  3.401901173156E-14  2.410660139224E-14
  1.701761883165E-14  1.196713841132E-14  8.382827213689E-15  5.848966146794E-15
  4.064766083041E-15  2.813449200941E-15  1.939405506642E-15  1.331382657129E-15
  9.101654113135E-16  6.195824233138E-16  4.199688496030E-16  2.834339805553E-16
  1.904499815744E-16  1.274034450595E-16  8.484560479717E-17  5.624732292117E-17
  3.711715779338E-17  2.437942838314E-17  1.593761673004E-17  1.036928435183E-17
  6.713877923857E-18  4.325835339759E-18  2.249750616938E-18  0.000000000000E+00
  0.000000000000E+00  0.000000000000E+00  0.000000000000E+00  0.000000000000E+00
  0.000000000000E+00  0.000000000000E+00
</data>
</radfunc>
</valence-charge>
<pseudocore-charge matching-radius="0.341457181469"
 number-of-continuous-derivatives="4">
<annotation model-charge-form="Teter function with specified parameters" />
<radfunc>
<data npts="291">
  2.155019242373E+02  2.154369084247E+02  2.152363841174E+02  2.149047630578E+02
  2.144443269478E+02  2.138400176293E+02  2.130716666165E+02  2.121943570323E+02
  2.112111213385E+02  2.100687880575E+02  2.087866865697E+02  2.073997262218E+02
  2.057326444977E+02  2.040021884796E+02  2.022843174975E+02  2.003189055651E+02
  1.980732435534E+02  1.959618657915E+02  1.936082365063E+02  1.909881259263E+02
  1.880758345083E+02  1.855175355598E+02  1.827407013946E+02  1.797307622595E+02
  1.764730386039E+02  1.729529559149E+02  1.691563114180E+02  1.661191730265E+02
  1.629135328644E+02  1.595345240302E+02  1.559778499924E+02  1.522399190003E+02
  1.483179925068E+02  1.442103474675E+02  1.399164519360E+02  1.354371528156E+02
  1.307748739431E+02  1.259338218558E+02  1.226101082724E+02  1.192120216687E+02
  1.157423959600E+02  1.122045530477E+02  1.086023273473E+02  1.049400883193E+02
  1.012227604107E+02  9.745583975325E+01  9.364540691074E+01  8.979813491096E+01
  8.592129175563E+01  8.202273656229E+01  7.811090846916E+01  7.419480742573E+01
  7.028396600439E+01  6.638841140526E+01  6.251861689240E+01  5.868544199921E+01
  5.490006097916E+01  5.117387915785E+01  4.751843706960E+01  4.394530253647E+01
  4.046595117330E+01  3.709163617695E+01  3.383324867940E+01  3.070117040648E+01
  2.770512087800E+01  2.485400189724E+01  2.215574259137E+01  2.086610997277E+01
  1.961714875705E+01  1.840951081318E+01  1.724376071050E+01  1.612037206578E+01
  1.503972420823E+01  1.400209920112E+01  1.300767925872E+01  1.205654459620E+01
  1.114867174916E+01  1.028393239775E+01  9.462092728208E+00  8.682813361860E+00
  7.945649878424E+00  7.250053956557E+00  6.595375150236E+00  5.980863314508E+00
  5.405671688684E+00  4.868860638823E+00  4.369402055026E+00  3.906184391760E+00
  3.478018332245E+00  3.083643050114E+00  2.721733033659E+00  2.390905429915E+00
  2.089727857805E+00  1.816726631631E+00  1.570395328573E+00  1.349203626620E+00
  1.151606332758E+00  9.760525153034E-01  8.209946493509E-01  6.848976803829E-01
  5.662479084532E-01  4.635615940978E-01  3.753931873926E-01  3.003430834875E-01
  2.370648115825E-01  1.842715697375E-01  1.407420251435E-01  1.053253085119E-01
  7.694514199452E-02  5.460305242646E-02  3.738063551365E-02  2.444085166606E-02
  1.502835023132E-02  8.468835605212E-03  4.167505725032E-03  1.606610393359E-03
  3.421933080234E-04  9.714385019956E-08  2.713250913753E-04  9.068644634866E-04
  1.712087912396E-03  2.540855076913E-03  3.289441781794E-03  3.890424990153E-03
  4.306649410744E-03  4.525395933861E-03  4.552862978391E-03  4.409059568376E-03
  4.123193836908E-03  3.729623119860E-03  3.264412408863E-03  2.762527340503E-03
  2.255666844938E-03  1.770719852596E-03  1.328810872294E-03  9.448816009614E-04
  6.277407396888E-04  3.805025112433E-04  2.013265025254E-04  8.436772245442E-05
  2.084630374719E-05  1.510006835506E-07  1.089923471837E-05  4.188838826757E-05
  8.288761965079E-05  1.252357827745E-04  1.622280846094E-04  1.892908502575E-04
  2.039591537103E-04  2.056851645383E-04  1.955150674095E-04  1.756787646681E-04
  1.491389754466E-04  1.191448031300E-04  8.882967115089E-05  6.088533088291E-05
  3.733327668434E-05  1.940338999543E-05  7.518091218467E-06  1.369802790005E-06
  7.109446256429E-08  2.351245611440E-06  6.770570375953E-06  1.192480677541E-05
  1.661589916857E-05  1.997199118385E-05  2.150750611174E-05  2.112276596166E-05
  1.905058986550E-05  1.576371617033E-05  1.186093902885E-05  7.951103438069E-06
  4.552524333464E-06  2.021353305710E-06  5.166329926161E-07  3.223912741561E-09
  0.000000000000E+00  0.000000000000E+00  0.000000000000E+00  0.000000000000E+00
  0.000000000000E+00  0.000000000000E+00  0.000000000000E+00  0.000000000000E+00
  0.000000000000E+00  0.000000000000E+00  0.000000000000E+00  0.000000000000E+00
  0.000000000000E+00  0.000000000000E+00  0.000000000000E+00  0.000000000000E+00
  0.000000000000E+00  0.000000000000E+00  0.000000000000E+00  0.000000000000E+00
  0.000000000000E+00  0.000000000000E+00  0.000000000000E+00  0.000000000000E+00
  0.000000000000E+00  0.000000000000E+00  0.000000000000E+00  0.000000000000E+00
  0.000000000000E+00  0.000000000000E+00  0.000000000000E+00  0.000000000000E+00
  0.000000000000E+00  0.000000000000E+00  0.000000000000E+00  0.000000000000E+00
  0.000000000000E+00  0.000000000000E+00  0.000000000000E+00  0.000000000000E+00
  0.000000000000E+00  0.000000000000E+00  0.000000000000E+00  0.000000000000E+00
  0.000000000000E+00  0.000000000000E+00  0.000000000000E+00  0.000000000000E+00
  0.000000000000E+00  0.000000000000E+00  0.000000000000E+00  0.000000000000E+00
  0.000000000000E+00  0.000000000000E+00  0.000000000000E+00  0.000000000000E+00
  0.000000000000E+00  0.000000000000E+00  0.000000000000E+00  0.000000000000E+00
  0.000000000000E+00  0.000000000000E+00  0.000000000000E+00  0.000000000000E+00
  0.000000000000E+00  0.000000000000E+00  0.000000000000E+00  0.000000000000E+00
  0.000000000000E+00  0.000000000000E+00  0.000000000000E+00  0.000000000000E+00
  0.000000000000E+00  0.000000000000E+00  0.000000000000E+00  0.000000000000E+00
  0.000000000000E+00  0.000000000000E+00  0.000000000000E+00  0.000000000000E+00
  0.000000000000E+00  0.000000000000E+00  0.000000000000E+00  0.000000000000E+00
  0.000000000000E+00  0.000000000000E+00  0.000000000000E+00  0.000000000000E+00
  0.000000000000E+00  0.000000000000E+00  0.000000000000E+00  0.000000000000E+00
  0.000000000000E+00  0.000000000000E+00  0.000000000000E+00  0.000000000000E+00
  0.000000000000E+00  0.000000000000E+00  0.000000000000E+00  0.000000000000E+00
  0.000000000000E+00  0.000000000000E+00  0.000000000000E+00  0.000000000000E+00
  0.000000000000E+00  0.000000000000E+00  0.000000000000E+00  0.000000000000E+00
  0.000000000000E+00  0.000000000000E+00  0.000000000000E+00  0.000000000000E+00
  0.000000000000E+00  0.000000000000E+00  0.000000000000E+00
</data>
</radfunc>
</pseudocore-charge>
<semilocal-potentials set="lj">
<slps n="3" l="s" j="0.5" rc="1.20912326210" eref="-5.42903507407">
<radfunc>
<data npts="291">
 -3.598085253075E+01 -3.598082729255E+01 -3.598074924925E+01 -3.598061961803E+01
 -3.598043845436E+01 -3.598019855975E+01 -3.597988997061E+01 -3.597953256663E+01
 -3.597912536526E+01 -3.597864308844E+01 -3.597808950676E+01 -3.597747528297E+01
 -3.597671473001E+01 -3.597589806850E+01 -3.597505833553E+01 -3.597406003229E+01
 -3.597286722613E+01 -3.597169175280E+01 -3.597031568904E+01 -3.596869690097E+01
 -3.596678244068E+01 -3.596499359446E+01 -3.596293069380E+01 -3.596054233356E+01
 -3.595776596699E+01 -3.595452534373E+01 -3.595072736743E+01 -3.594744557706E+01
 -3.594372966653E+01 -3.593951319083E+01 -3.593471886161E+01 -3.592925679435E+01
 -3.592302249264E+01 -3.591589453648E+01 -3.590773193930E+01 -3.589837113639E+01
 -3.588762256738E+01 -3.587526681611E+01 -3.586601308113E+01 -3.585584856623E+01
 -3.584468031577E+01 -3.583240624626E+01 -3.581891436747E+01 -3.580408196489E+01
 -3.578777474913E+01 -3.576984598109E+01 -3.575013558512E+01 -3.572846926684E+01
 -3.570465765767E+01 -3.567849551382E+01 -3.564976100468E+01 -3.561821513182E+01
 -3.558360132621E+01 -3.554564527566E+01 -3.550405503464E+01 -3.545852146393E+01
 -3.540871903333E+01 -3.535430699597E+01 -3.529493090545E+01 -3.523022439792E+01
 -3.515981110474E+01 -3.508330650700E+01 -3.500031950530E+01 -3.491045347429E+01
 -3.481330661790E+01 -3.470847154351E+01 -3.459553412330E+01 -3.453589538315E+01
 -3.447407187773E+01 -3.441000920861E+01 -3.434365225550E+01 -3.427494514790E+01
 -3.420383125151E+01 -3.413025317132E+01 -3.405415277278E+01 -3.397547122157E+01
 -3.389414904188E+01 -3.381012619284E+01 -3.372334216203E+01 -3.363373607521E+01
 -3.354124682137E+01 -3.344581319234E+01 -3.334737403663E+01 -3.324586842745E+01
 -3.314123584514E+01 -3.303341637437E+01 -3.292235091648E+01 -3.280798141674E+01
 -3.269025110617E+01 -3.256910475609E+01 -3.244448894298E+01 -3.231635231969E+01
 -3.218464588769E+01 -3.204932326423E+01 -3.191034093667E+01 -3.176765849636E+01
 -3.162123884359E+01 -3.147104835611E+01 -3.131705701446E+01 -3.115923847891E+01
 -3.099757011502E+01 -3.083203296720E+01 -3.066261168209E+01 -3.048929438640E+01
 -3.031207252598E+01 -3.013094067487E+01 -2.994589632450E+01 -2.975693966377E+01
 -2.956407336117E+01 -2.936730235913E+01 -2.916663369009E+01 -2.896207632248E+01
 -2.875364104278E+01 -2.854134037891E+01 -2.832518856817E+01 -2.810520157222E+01
 -2.788139714065E+01 -2.765379492434E+01 -2.742241664015E+01 -2.718728628883E+01
 -2.694843042963E+01 -2.670587851606E+01 -2.645966329973E+01 -2.620982131121E+01
 -2.595639342951E+01 -2.569942555491E+01 -2.543896940278E+01 -2.517508343981E+01
 -2.490783398730E+01 -2.463729652057E+01 -2.436355719695E+01 -2.408671464914E+01
 -2.380688208458E+01 -2.352418973469E+01 -2.323878770124E+01 -2.295084924871E+01
 -2.266057459246E+01 -2.236819523137E+01 -2.207397887025E+01 -2.177823497145E+01
 -2.148132096590E+01 -2.118364914158E+01 -2.088569421150E+01 -2.058800154394E+01
 -2.029119601579E+01 -1.999599142479E+01 -1.970320037049E+01 -1.941374448659E+01