Rn    ONCVPSP-3.3.0  r_core=   2.42844   2.10456   2.86982
86.0000      8.0000      180503    zatom,zion,pspd
8 -116133   2     4   600     0    pspcod,pspxc,lmax,lloc,mmax,r2well
5.99000000  8.00000000  0.00000000    rchrg fchrg qchrg
2     4     4     0    nproj
3     1           extension_switch
4     4     0    nprojso
0                         6.5570519481717D-01  5.8365295269058D+00
1  0.0000000000000D+00 -5.5265930720694D-12  2.2150059564296D-12
2  1.0000000000000D-02  4.3130640586626D-03  2.0019881795169D-02
3  2.0000000000000D-02  8.5908496933843D-03  4.0047191103780D-02
4  3.0000000000000D-02  1.2798229046646D-02  6.0089295477280D-02
5  4.0000000000000D-02  1.6900374900514D-02  8.0153442742661D-02
6  5.0000000000000D-02  2.0862909764671D-02  1.0024670163853D-01
7  6.0000000000000D-02  2.4652053490222D-02  1.2037590304759D-01
8  7.0000000000000D-02  2.8234768924319D-02  1.4054758202166D-01
9  8.0000000000000D-02  3.1578905126184D-02  1.6076792079335D-01
10  9.0000000000000D-02  3.4653337671988D-02  1.8104269296545D-01
11  1.0000000000000D-01  3.7428105584245D-02  2.0137720906607D-01
12  1.1000000000000D-01  3.9874544430959D-02  2.2177626365354D-01
13  1.2000000000000D-01  4.1965415150565D-02  2.4224408415082D-01
14  1.3000000000000D-01  4.3675028170887D-02  2.6278428158423D-01
15  1.4000000000000D-01  4.4979362403655D-02  2.8339980339606D-01
16  1.5000000000000D-01  4.5856178710753D-02  3.0409288849462D-01
17  1.6000000000000D-01  4.6285127454181D-02  3.2486502469898D-01
18  1.7000000000000D-01  4.6247849758581D-02  3.4571690872903D-01
19  1.8000000000000D-01  4.5728072133296D-02  3.6664840888400D-01
20  1.9000000000000D-01  4.4711694120038D-02  3.8765853054506D-01
21  2.0000000000000D-01  4.3186868652357D-02  4.0874538462956D-01
22  2.1000000000000D-01  4.1144074834267D-02  4.2990615911601D-01
23  2.2000000000000D-01  3.8576182867432D-02  4.5113709374994D-01
24  2.3000000000000D-01  3.5478510879263D-02  4.7243345803177D-01
25  2.4000000000000D-01  3.1848873427978D-02  4.9378953257830D-01
26  2.5000000000000D-01  2.7687621485298D-02  5.1519859393957D-01
27  2.6000000000000D-01  2.2997673722537D-02  5.3665290294273D-01
28  2.7000000000000D-01  1.7784538951851D-02  5.5814369662444D-01
29  2.8000000000000D-01  1.2056329600714D-02  5.7966118380251D-01
30  2.9000000000000D-01  5.8237661247917D-03  6.0119454432697D-01
31  3.0000000000000D-01 -8.9982770845680D-04  6.2273193203971D-01
32  3.1000000000000D-01 -8.0985387051422D-03  6.4426048146079D-01
33  3.2000000000000D-01 -1.5753887311000D-02  6.6576631820852D-01
34  3.3000000000000D-01 -2.3844859841690D-02  6.8723457314885D-01
35  3.4000000000000D-01 -3.2347949832349D-02  7.0864940025863D-01
36  3.5000000000000D-01 -4.1237208432972D-02  7.2999399817580D-01
37  3.6000000000000D-01 -5.0484303747773D-02  7.5125063539828D-01
38  3.7000000000000D-01 -6.0058588988285D-02  7.7240067908218D-01
39  3.8000000000000D-01 -6.9927179281704D-02  7.9342462737848D-01
40  3.9000000000000D-01 -8.0055036948116D-02  8.1430214523667D-01
41  4.0000000000000D-01 -9.0405065032648D-02  8.3501210359244D-01
42  4.1000000000000D-01 -1.0093820885125D-01  8.5553262184599D-01
43  4.2000000000000D-01 -1.1161356528239D-01  8.7584111352694D-01
44  4.3000000000000D-01 -1.2238849951055D-01  8.9591433503129D-01
45  4.4000000000000D-01 -1.3321876890221D-01  9.1572843730600D-01
46  4.5000000000000D-01 -1.4405865367028D-01  9.3525902034687D-01
47  4.6000000000000D-01 -1.5486109395876D-01  9.5448119036584D-01
48  4.7000000000000D-01 -1.6557783295713D-01  9.7336961947492D-01
49  4.8000000000000D-01 -1.7615956563124D-01  9.9189860772509D-01
50  4.9000000000000D-01 -1.8655609263708D-01  1.0100421473301D+00
51  5.0000000000000D-01 -1.9671647896388D-01  1.0277739888975D+00
52  5.1000000000000D-01 -2.0658921683428D-01  1.0450677094815D+00
53  5.2000000000000D-01 -2.1612239237232D-01  1.0618967822659D+00
54  5.3000000000000D-01 -2.2526385553376D-01  1.0782346476779D+00
55  5.4000000000000D-01 -2.3396139277885D-01  1.0940547857286D+00
56  5.5000000000000D-01 -2.4216290195456D-01  1.1093307893714D+00
57  5.6000000000000D-01 -2.4981656884178D-01  1.1240364386620D+00
58  5.7000000000000D-01 -2.5687104481300D-01  1.1381457755040D+00
59  5.8000000000000D-01 -2.6327562503750D-01  1.1516331787553D+00
60  5.9000000000000D-01 -2.6898042666475D-01  1.1644734394735D+00
61  6.0000000000000D-01 -2.7393656641147D-01  1.1766418360705D+00
62  6.1000000000000D-01 -2.7809633697469D-01  1.1881142091504D+00
63  6.2000000000000D-01 -2.8141338169173D-01  1.1988670357994D+00
64  6.3000000000000D-01 -2.8384286686872D-01  1.2088775030992D+00
65  6.4000000000000D-01 -2.8534165120062D-01  1.2181235806350D+00
66  6.5000000000000D-01 -2.8586845171118D-01  1.2265840917707D+00
67  6.6000000000000D-01 -2.8538400564551D-01  1.2342387834644D+00
68  6.7000000000000D-01 -2.8385122775741D-01  1.2410683944033D+00
69  6.8000000000000D-01 -2.8123536244190D-01  1.2470547212363D+00
70  6.9000000000000D-01 -2.7750413017560D-01  1.2521806826899D+00
71  7.0000000000000D-01 -2.7262786774074D-01  1.2564303813569D+00
72  7.1000000000000D-01 -2.6657966172365D-01  1.2597891629513D+00
73  7.2000000000000D-01 -2.5933547479573D-01  1.2622436728318D+00
74  7.3000000000000D-01 -2.5087426430312D-01  1.2637819095995D+00
75  7.4000000000000D-01 -2.4117809271233D-01  1.2643932755876D+00
76  7.5000000000000D-01 -2.3023222948042D-01  1.2640686240631D+00
77  7.6000000000000D-01 -2.1802524394256D-01  1.2628003029747D+00
78  7.7000000000000D-01 -2.0454908883481D-01  1.2605821950869D+00
79  7.8000000000000D-01 -1.8979917409660D-01  1.2574097543512D+00
80  7.9000000000000D-01 -1.7377443062572D-01  1.2532800383759D+00
81  8.0000000000000D-01 -1.5647736368793D-01  1.2481917368670D+00
82  8.1000000000000D-01 -1.3791409571422D-01  1.2421451959229D+00
83  8.2000000000000D-01 -1.1809439825058D-01  1.2351424380792D+00
84  8.3000000000000D-01 -9.7031712858298D-02  1.2271871780110D+00
85  8.4000000000000D-01 -7.4743160796449D-02  1.2182848338123D+00
86  8.5000000000000D-01 -5.1249541353811D-02  1.2084425337871D+00
87  8.6000000000000D-01 -2.6575318732166D-02  1.1976691186969D+00
88  8.7000000000000D-01 -7.4859742033473D-04  1.1859751394269D+00
89  8.8000000000000D-01  2.6198913965698D-02  1.1733728500427D+00
90  8.9000000000000D-01  5.4231950363446D-02  1.1598761962268D+00
91  9.0000000000000D-01  8.3311749414639D-02  1.1455007990955D+00
92  9.1000000000000D-01  1.1339612199754D-01  1.1302639344135D+00
93  9.2000000000000D-01  1.4443953401454D-01  1.1141845072360D+00
94  9.3000000000000D-01  1.7639319927073D-01  1.0972830220224D+00
95  9.4000000000000D-01  2.0920518324180D-01  1.0795815482809D+00
96  9.5000000000000D-01  2.4282051749199D-01  1.0611036818168D+00
97  9.6000000000000D-01  2.7718132446627D-01  1.0418745016711D+00
98  9.7000000000000D-01  3.1222695234459D-01  1.0219205228494D+00
99  9.8000000000000D-01  3.4789411961045D-01  1.0012696449564D+00
100  9.9000000000000D-01  3.8411706895131D-01  9.7995109686247D-01
101  1.0000000000000D+00  4.2082773007507D-01  9.5799537754208D-01
102  1.0100000000000D+00  4.5795589099388D-01  9.3543419323803D-01
103  1.0200000000000D+00  4.9542937729518D-01  9.1230039111553D-01
104  1.0300000000000D+00  5.3317423889010D-01  8.8862788958297D-01
105  1.0400000000000D+00  5.7111494370072D-01  8.6445160546706D-01
106  1.0500000000000D+00  6.0917457772054D-01  8.3980737824087D-01
107  1.0600000000000D+00  6.4727505085758D-01  8.1473189151294D-01
108  1.0700000000000D+00  6.8533730794642D-01  7.8926259199525D-01
109  1.0800000000000D+00  7.2328154429247D-01  7.6343760617682D-01
110  1.0900000000000D+00  7.6102742509398D-01  7.3729565493744D-01
111  1.1000000000000D+00  7.9849430806828D-01  7.1087596634361D-01
112  1.1100000000000D+00  8.3560146859496D-01  6.8421818687494D-01
113  1.1200000000000D+00  8.7226832667417D-01  6.5736229133567D-01
114  1.1300000000000D+00  9.0841467498788D-01  6.3034849171059D-01
115  1.1400000000000D+00  9.4396090734365D-01  6.0321714522893D-01
116  1.1500000000000D+00  9.7882824677474D-01  5.7600866190295D-01
117  1.1600000000000D+00  1.0129389725657D+00  5.4876341181062D-01
118  1.1700000000000D+00  1.0462166454720D+00  5.2152163239354D-01
119  1.1800000000000D+00  1.0785863304048D+00  4.9432333604133D-01
120  1.1900000000000D+00  1.1099748158533D+00  4.6720821823424D-01
121  1.2000000000000D+00  1.1403108293255D+00  4.4021556651443D-01
122  1.2100000000000D+00  1.1695252480965D+00  4.1338417055409D-01
123  1.2200000000000D+00  1.1975513045665D+00  3.8675223358551D-01
124  1.2300000000000D+00  1.2243247855392D+00  3.6035728545626D-01
125  1.2400000000000D+00  1.2497842247537D+00  3.3423609756556D-01
126  1.2500000000000D+00  1.2738710880246D+00  3.0842459993211D-01
127  1.2600000000000D+00  1.2965299503493D+00  2.8295780064240D-01
128  1.2700000000000D+00  1.3177086643846D+00  2.5786970791482D-01
129  1.2800000000000D+00  1.3373585197202D+00  2.3319325500748D-01
130  1.2900000000000D+00  1.3554343923747D+00  2.0896022819785D-01
131  1.3000000000000D+00  1.3718948840104D+00  1.8520119804024D-01
132  1.3100000000000D+00  1.3867024503808D+00  1.6194545410089D-01
133  1.3200000000000D+00  1.3998235185249D+00  1.3922094337066D-01
134  1.3300000000000D+00  1.4112285923190D+00  1.1705421252401D-01
135  1.3400000000000D+00  1.4208923459935D+00  9.5470354193227D-02
136  1.3500000000000D+00  1.4287937052443D+00  7.4492957420402D-02
137  1.3600000000000D+00  1.4349159156776D+00  5.4144062412643D-02
138  1.3700000000000D+00  1.4392465982870D+00  3.4444119739366D-02
139  1.3800000000000D+00  1.4417777917423D+00  1.5411954084065D-02
140  1.3900000000000D+00  1.4425059813618D+00 -2.9352673689448D-03
141  1.4000000000000D+00  1.4414321145432D+00 -2.0582061799900D-02
142  1.4100000000000D+00  1.4385616026539D+00 -3.7514652833122D-02
143  1.4200000000000D+00  1.4339043092896D+00 -5.3720987764638D-02
144  1.4300000000000D+00  1.4274745248815D+00 -6.9190749892541D-02
145  1.4400000000000D+00  1.4192909277878D+00 -8.3915365961872D-02
146  1.4500000000000D+00  1.4093765318279D+00 -9.7888008672273D-02
147  1.4600000000000D+00  1.3977586205320D+00 -1.1110359430626D-01
148  1.4700000000000D+00  1.3844686682000D+00 -1.2355877547487D-01
149  1.4800000000000D+00  1.3695422480156D+00 -1.3525192902900D-01
150  1.4900000000000D+00  1.3530189275457D+00 -1.4618313921612D-01
151  1.5000000000000D+00  1.3349421518137D+00 -1.5635417611050D-01
152  1.5100000000000D+00  1.3153591144766D+00 -1.6576846946832D-01
153  1.5200000000000D+00  1.2943206173143D+00 -1.7443107804228D-01
154  1.5300000000000D+00  1.2718809186400D+00 -1.8234865453595D-01
155  1.5400000000000D+00  1.2480975709805D+00 -1.8952940628329D-01
156  1.5500000000000D+00  1.2230312486070D+00 -1.9598305182361D-01
157  1.5600000000000D+00  1.1967455654527D+00 -2.0172077352610D-01
158  1.5700000000000D+00  1.1693068839521D+00 -2.0675516641743D-01
159  1.5800000000000D+00  1.1407841155045D+00 -2.1110018342943D-01
160  1.5900000000000D+00  1.1112485130673D+00 -2.1477107720811D-01
161  1.6000000000000D+00  1.0807734567082D+00 -2.1778433875188D-01
162  1.6100000000000D+00  1.0494342326211D+00 -2.2015763301726D-01
163  1.6200000000000D+00  1.0173078065067D+00 -2.2190973179176D-01
164  1.6300000000000D+00  9.8447259186325D-01 -2.2306044398597D-01
165  1.6400000000000D+00  9.5100821409872D-01 -2.2363054365217D-01
166  1.6500000000000D+00  9.1699527108487D-01 -2.2364169590981D-01
167  1.6600000000000D+00  8.8251509103276D-01 -2.2311638107787D-01
168  1.6700000000000D+00  8.4764948838791D-01 -2.2207781722345D-01
169  1.6800000000000D+00  8.1248051858233D-01 -2.2054988141634D-01
170  1.6900000000000D+00  7.7709023240274D-01 -2.1855702992215D-01
171  1.7000000000000D+00  7.4156043076152D-01 -2.1612421761115D-01
172  1.7100000000000D+00  7.0597242068217D-01 -2.1327681683512D-01
173  1.7200000000000D+00  6.7040677321449D-01 -2.1004053603088D-01
174  1.7300000000000D+00  6.3494308414913D-01 -2.0644133832311D-01
175  1.7400000000000D+00  5.9965973813917D-01 -2.0250536035602D-01
176  1.7500000000000D+00  5.6463367717967D-01 -1.9825883165288D-01
177  1.7600000000000D+00  5.2994017388977D-01 -1.9372799468737D-01
178  1.7700000000000D+00  4.9565261067422D-01 -1.8893902600474D-01
179  1.7800000000000D+00  4.6184226497381D-01 -1.8391795850902D-01
180  1.7900000000000D+00  4.2857810184565D-01 -1.7869060530549D-01
181  1.8000000000000D+00  3.9592657383927D-01 -1.7328248514117D-01
182  1.8100000000000D+00  3.6395142949052D-01 -1.6771874986263D-01
183  1.8200000000000D+00  3.3271353028057D-01 -1.6202411389334D-01
184  1.8300000000000D+00  3.0227067729088D-01 -1.5622278613039D-01
185  1.8400000000000D+00  2.7267744744956D-01 -1.5033840427132D-01
186  1.8500000000000D+00  2.4398504031976D-01 -1.4439397189338D-01
187  1.8600000000000D+00  2.1624113556009D-01 -1.3841179836218D-01
188  1.8700000000000D+00  1.8948976151273D-01 -1.3241344174620D-01
189  1.8800000000000D+00  1.6377117549983D-01 -1.2641965494947D-01
190  1.8900000000000D+00  1.3912175556120D-01 -1.2045033501883D-01
191  1.9000000000000D+00  1.1557390485611D-01 -1.1452447603663D-01
192  1.9100000000000D+00  9.3155967630878D-02 -1.0866012529623D-01
193  1.9200000000000D+00  7.1892158491903D-02 -1.0287434333554D-01
194  1.9300000000000D+00  5.1802503571665D-02 -9.7183167423440D-02
195  1.9400000000000D+00  3.2902794937847D-02 -9.1601578957898D-02
196  1.9500000000000D+00  1.5204557508300D-02 -8.6143474577772D-02
197  1.9600000000000D+00 -1.2849713276279D-03 -8.0821641087695D-02
198  1.9700000000000D+00 -1.6562848968092D-02 -7.5647734362285D-02
199  1.9800000000000D+00 -3.0630422943726D-02 -7.0632261878689D-02
200  1.9900000000000D+00 -4.3493312843637D-02 -6.5784569397808D-02
201  2.0000000000000D+00 -5.5161380785401D-02 -6.1112831193796D-02
202  2.0100000000000D+00 -6.5648689113221D-02 -5.6624044296927D-02
203  2.0200000000000D+00 -7.4973446504220D-02 -5.2324026398962D-02
204  2.0300000000000D+00 -8.3157942625680D-02 -4.8217417411383D-02
205  2.0400000000000D+00 -9.0228476989802D-02 -4.4307683481916D-02
206  2.0500000000000D+00 -9.6215246210668D-02 -4.0597131366206D-02
207  2.0600000000000D+00 -1.0115230805279D-01 -3.7086906522564D-02
208  2.0700000000000D+00 -1.0507737388162D-01 -3.3777031653455D-02
209  2.0800000000000D+00 -1.0803171419961D-01 -3.0666419990715D-02
210  2.0900000000000D+00 -1.1006006365950D-01 -2.7752888547912D-02
211  2.1000000000000D+00 -1.1121091473020D-01 -2.5033089196735D-02
212  2.1100000000000D+00 -1.1153551316845D-01 -2.2502728492728D-02
213  2.1200000000000D+00 -1.1108740430521D-01 -2.0156663777803D-02
214  2.1300000000000D+00 -1.0992183047221D-01 -1.7989041479814D-02
215  2.1400000000000D+00 -1.0809526449093D-01 -1.5993411767139D-02
216  2.1500000000000D+00 -1.0566432192789D-01 -1.4162981350750D-02
217  2.1600000000000D+00 -1.0268602564771D-01 -1.2490564262147D-02
218  2.1700000000000D+00 -9.9217586436055D-02 -1.0968644857797D-02
219  2.1800000000000D+00 -9.5316243748708D-02 -9.5894263954386D-03
220  2.1900000000000D+00 -9.1038926635738D-02 -8.3449176115826D-03
221  2.2000000000000D+00 -8.6442116102695D-02 -7.2269767594167D-03
222  2.2100000000000D+00 -8.1581614760217D-02 -6.2273756034287D-03
223  2.2200000000000D+00 -7.6512344962151D-02 -5.3378572238846D-03
224  2.2300000000000D+00 -7.1288150072491D-02 -4.5501930807731D-03
225  2.2400000000000D+00 -6.5961600219566D-02 -3.8562389097197D-03
226  2.2500000000000D+00 -6.0583802901930D-02 -3.2479894226401D-03
227  2.2600000000000D+00 -5.5204220126541D-02 -2.7176312766126D-03
228  2.2700000000000D+00 -4.9870492542683D-02 -2.2575941722570D-03
229  2.2800000000000D+00 -4.4628269867320D-02 -1.8606002918300D-03
230  2.2900000000000D+00 -3.9521050939660D-02 -1.5197110580904D-03
231  2.3000000000000D+00 -3.4590031324614D-02 -1.2283718284021D-03
232  2.3100000000000D+00 -2.9873959408320D-02 -9.8045423090919D-04
233  2.3200000000000D+00 -2.5409003737255D-02 -7.7029530303647D-04
234  2.3300000000000D+00 -2.1228628816127D-02 -5.9273428309273D-04
235  2.3400000000000D+00 -1.7363481583400D-02 -4.4314634024585D-04
236  2.3500000000000D+00 -1.3844335545059D-02 -3.1743252941456D-04
237  2.3600000000000D+00 -1.0691321090240D-02 -2.1218967779392D-04
238  2.3700000000000D+00 -7.9222883106355D-03 -1.2462211750873D-04
239  2.3800000000000D+00 -5.5404884046224D-03 -5.3347446913973D-05
240  2.3900000000000D+00 -3.6000364024436D-03  4.8345168417361D-06
241  2.4000000000000D+00 -2.1331492977478D-03  5.1592905116635D-05
242  2.4100000000000D+00 -1.1654011460084D-03  9.0021193462433D-05
243  2.4200000000000D+00 -5.8143218565069D-04  1.0993084340733D-04
244  2.4300000000000D+00 -2.6673415726278D-04  1.0492592665950D-04
245  2.4400000000000D+00 -9.5955608382058D-05  7.0530783764522D-05
246  2.4500000000000D+00 -2.1651861672707D-05  2.7959371286911D-05
247  2.4600000000000D+00  2.3958353398521D-06 -4.5189021790897D-06
248  2.4700000000000D+00  3.3970647837365D-06 -1.2474195286697D-05
249  2.4800000000000D+00  6.5207060050064D-07 -7.1993585368614D-06
250  2.4900000000000D+00 -8.5628487819925D-07  1.0214869294655D-06
251  2.5000000000000D+00 -2.0396533639022D-06  2.7519688662686D-06
252  2.5100000000000D+00 -1.1157296149004D-06  1.6871240482486D-06
253  2.5200000000000D+00  3.1599577281691D-07 -1.1203834201260D-07
254  2.5300000000000D+00  8.6106187848953D-07 -3.0529504991865D-07
255  2.5400000000000D+00  5.5600915219798D-07 -1.9713663572387D-07
256  2.5500000000000D+00  0.0000000000000D+00  0.0000000000000D+00
257  2.5600000000000D+00  0.0000000000000D+00  0.0000000000000D+00
258  2.5700000000000D+00  0.0000000000000D+00  0.0000000000000D+00
259  2.5800000000000D+00  0.0000000000000D+00  0.0000000000000D+00
260  2.5900000000000D+00  0.0000000000000D+00  0.0000000000000D+00
261  2.6000000000000D+00  0.0000000000000D+00  0.0000000000000D+00
262  2.6100000000000D+00  0.0000000000000D+00  0.0000000000000D+00
263  2.6200000000000D+00  0.0000000000000D+00  0.0000000000000D+00
264  2.6300000000000D+00  0.0000000000000D+00  0.0000000000000D+00
265  2.6400000000000D+00  0.0000000000000D+00  0.0000000000000D+00
266  2.6500000000000D+00  0.0000000000000D+00  0.0000000000000D+00
267  2.6600000000000D+00  0.0000000000000D+00  0.0000000000000D+00
268  2.6700000000000D+00  0.0000000000000D+00  0.0000000000000D+00
269  2.6800000000000D+00  0.0000000000000D+00  0.0000000000000D+00
270  2.6900000000000D+00  0.0000000000000D+00  0.0000000000000D+00
271  2.7000000000000D+00  0.0000000000000D+00  0.0000000000000D+00
272  2.7100000000000D+00  0.0000000000000D+00  0.0000000000000D+00
273  2.7200000000000D+00  0.0000000000000D+00  0.0000000000000D+00
274  2.7300000000000D+00  0.0000000000000D+00  0.0000000000000D+00
275  2.7400000000000D+00  0.0000000000000D+00  0.0000000000000D+00
276  2.7500000000000D+00  0.0000000000000D+00  0.0000000000000D+00
277  2.7600000000000D+00  0.0000000000000D+00  0.0000000000000D+00
278  2.7700000000000D+00  0.0000000000000D+00  0.0000000000000D+00
279  2.7800000000000D+00  0.0000000000000D+00  0.0000000000000D+00
280  2.7900000000000D+00  0.0000000000000D+00  0.0000000000000D+00
281  2.8000000000000D+00  0.0000000000000D+00  0.0000000000000D+00
282  2.8100000000000D+00  0.0000000000000D+00  0.0000000000000D+00
283  2.8200000000000D+00  0.0000000000000D+00  0.0000000000000D+00
284  2.8300000000000D+00  0.0000000000000D+00  0.0000000000000D+00
285  2.8400000000000D+00  0.0000000000000D+00  0.0000000000000D+00
286  2.8500000000000D+00  0.0000000000000D+00  0.0000000000000D+00
287  2.8600000000000D+00  0.0000000000000D+00  0.0000000000000D+00
288  2.8700000000000D+00  0.0000000000000D+00  0.0000000000000D+00
289  2.8800000000000D+00  0.0000000000000D+00  0.0000000000000D+00
290  2.8900000000000D+00  0.0000000000000D+00  0.0000000000000D+00
291  2.9000000000000D+00  0.0000000000000D+00  0.0000000000000D+00
292  2.9100000000000D+00  0.0000000000000D+00  0.0000000000000D+00
293  2.9200000000000D+00  0.0000000000000D+00  0.0000000000000D+00
294  2.9300000000000D+00  0.0000000000000D+00  0.0000000000000D+00
295  2.9400000000000D+00  0.0000000000000D+00  0.0000000000000D+00
296  2.9500000000000D+00  0.0000000000000D+00  0.0000000000000D+00
297  2.9600000000000D+00  0.0000000000000D+00  0.0000000000000D+00
298  2.9700000000000D+00  0.0000000000000D+00  0.0000000000000D+00
299  2.9800000000000D+00  0.0000000000000D+00  0.0000000000000D+00
300  2.9900000000000D+00  0.0000000000000D+00  0.0000000000000D+00
301  3.0000000000000D+00  0.0000000000000D+00  0.0000000000000D+00
302  3.0100000000000D+00  0.0000000000000D+00  0.0000000000000D+00
303  3.0200000000000D+00  0.0000000000000D+00  0.0000000000000D+00
304  3.0300000000000D+00  0.0000000000000D+00  0.0000000000000D+00
305  3.0400000000000D+00  0.0000000000000D+00  0.0000000000000D+00
306  3.0500000000000D+00  0.0000000000000D+00  0.0000000000000D+00
307  3.0600000000000D+00  0.0000000000000D+00  0.0000000000000D+00
308  3.0700000000000D+00  0.0000000000000D+00  0.0000000000000D+00
309  3.0800000000000D+00  0.0000000000000D+00  0.0000000000000D+00
310  3.0900000000000D+00  0.0000000000000D+00  0.0000000000000D+00
311  3.1000000000000D+00  0.0000000000000D+00  0.0000000000000D+00
312  3.1100000000000D+00  0.0000000000000D+00  0.0000000000000D+00
313  3.1200000000000D+00  0.0000000000000D+00  0.0000000000000D+00
314  3.1300000000000D+00  0.0000000000000D+00  0.0000000000000D+00
315  3.1400000000000D+00  0.0000000000000D+00  0.0000000000000D+00
316  3.1500000000000D+00  0.0000000000000D+00  0.0000000000000D+00
317  3.1600000000000D+00  0.0000000000000D+00  0.0000000000000D+00
318  3.1700000000000D+00  0.0000000000000D+00  0.0000000000000D+00
319  3.1800000000000D+00  0.0000000000000D+00  0.0000000000000D+00
320  3.1900000000000D+00  0.0000000000000D+00  0.0000000000000D+00
321  3.2000000000000D+00  0.0000000000000D+00  0.0000000000000D+00
322  3.2100000000000D+00  0.0000000000000D+00  0.0000000000000D+00
323  3.2200000000000D+00  0.0000000000000D+00  0.0000000000000D+00
324  3.2300000000000D+00  0.0000000000000D+00  0.0000000000000D+00
325  3.2400000000000D+00  0.0000000000000D+00  0.0000000000000D+00
326  3.2500000000000D+00  0.0000000000000D+00  0.0000000000000D+00
327  3.2600000000000D+00  0.0000000000000D+00  0.0000000000000D+00
328  3.2700000000000D+00  0.0000000000000D+00  0.0000000000000D+00
329  3.2800000000000D+00  0.0000000000000D+00  0.0000000000000D+00
330  3.2900000000000D+00  0.0000000000000D+00  0.0000000000000D+00
331  3.3000000000000D+00  0.0000000000000D+00  0.0000000000000D+00
332  3.3100000000000D+00  0.0000000000000D+00  0.0000000000000D+00
333  3.3200000000000D+00  0.0000000000000D+00  0.0000000000000D+00
334  3.3300000000000D+00  0.0000000000000D+00  0.0000000000000D+00
335  3.3400000000000D+00  0.0000000000000D+00  0.0000000000000D+00
336  3.3500000000000D+00  0.0000000000000D+00  0.0000000000000D+00
337  3.3600000000000D+00  0.0000000000000D+00  0.0000000000000D+00
338  3.3700000000000D+00  0.0000000000000D+00  0.0000000000000D+00
339  3.3800000000000D+00  0.0000000000000D+00  0.0000000000000D+00
340  3.3900000000000D+00  0.0000000000000D+00  0.0000000000000D+00
341  3.4000000000000D+00  0.0000000000000D+00  0.0000000000000D+00
342  3.4100000000000D+00  0.0000000000000D+00  0.0000000000000D+00
343  3.4200000000000D+00  0.0000000000000D+00  0.0000000000000D+00
344  3.4300000000000D+00  0.0000000000000D+00  0.0000000000000D+00
345  3.4400000000000D+00  0.0000000000000D+00  0.0000000000000D+00
346  3.4500000000000D+00  0.0000000000000D+00  0.0000000000000D+00
347  3.4600000000000D+00  0.0000000000000D+00  0.0000000000000D+00
348  3.4700000000000D+00  0.0000000000000D+00  0.0000000000000D+00
349  3.4800000000000D+00  0.0000000000000D+00  0.0000000000000D+00
350  3.4900000000000D+00  0.0000000000000D+00  0.0000000000000D+00
351  3.5000000000000D+00  0.0000000000000D+00  0.0000000000000D+00
352  3.5100000000000D+00  0.0000000000000D+00  0.0000000000000D+00
353  3.5200000000000D+00  0.0000000000000D+00  0.0000000000000D+00
354  3.5300000000000D+00  0.0000000000000D+00  0.0000000000000D+00
355  3.5400000000000D+00  0.0000000000000D+00  0.0000000000000D+00
356  3.5500000000000D+00  0.0000000000000D+00  0.0000000000000D+00
357  3.5600000000000D+00  0.0000000000000D+00  0.0000000000000D+00
358  3.5700000000000D+00  0.0000000000000D+00  0.0000000000000D+00
359  3.5800000000000D+00  0.0000000000000D+00  0.0000000000000D+00
360  3.5900000000000D+00  0.0000000000000D+00  0.0000000000000D+00
361  3.6000000000000D+00  0.0000000000000D+00  0.0000000000000D+00
362  3.6100000000000D+00  0.0000000000000D+00  0.0000000000000D+00
363  3.6200000000000D+00  0.0000000000000D+00  0.0000000000000D+00
364  3.6300000000000D+00  0.0000000000000D+00  0.0000000000000D+00
365  3.6400000000000D+00  0.0000000000000D+00  0.0000000000000D+00
366  3.6500000000000D+00  0.0000000000000D+00  0.0000000000000D+00
367  3.6600000000000D+00  0.0000000000000D+00  0.0000000000000D+00
368  3.6700000000000D+00  0.0000000000000D+00  0.0000000000000D+00
369  3.6800000000000D+00  0.0000000000000D+00  0.0000000000000D+00
370  3.6900000000000D+00  0.0000000000000D+00  0.0000000000000D+00
371  3.7000000000000D+00  0.0000000000000D+00  0.0000000000000D+00
372  3.7100000000000D+00  0.0000000000000D+00  0.0000000000000D+00
373  3.7200000000000D+00  0.0000000000000D+00  0.0000000000000D+00
374  3.7300000000000D+00  0.0000000000000D+00  0.0000000000000D+00
375  3.7400000000000D+00  0.0000000000000D+00  0.0000000000000D+00
376  3.7500000000000D+00  0.0000000000000D+00  0.0000000000000D+00
377  3.7600000000000D+00  0.0000000000000D+00  0.0000000000000D+00
378  3.7700000000000D+00  0.0000000000000D+00  0.0000000000000D+00
379  3.7800000000000D+00  0.0000000000000D+00  0.0000000000000D+00
380  3.7900000000000D+00  0.0000000000000D+00  0.0000000000000D+00
381  3.8000000000000D+00  0.0000000000000D+00  0.0000000000000D+00
382  3.8100000000000D+00  0.0000000000000D+00  0.0000000000000D+00
383  3.8200000000000D+00  0.0000000000000D+00  0.0000000000000D+00
384  3.8300000000000D+00  0.0000000000000D+00  0.0000000000000D+00
385  3.8400000000000D+00  0.0000000000000D+00  0.0000000000000D+00
386  3.8500000000000D+00  0.0000000000000D+00  0.0000000000000D+00
387  3.8600000000000D+00  0.0000000000000D+00  0.0000000000000D+00
388  3.8700000000000D+00  0.0000000000000D+00  0.0000000000000D+00
389  3.8800000000000D+00  0.0000000000000D+00  0.0000000000000D+00
390  3.8900000000000D+00  0.0000000000000D+00  0.0000000000000D+00
391  3.9000000000000D+00  0.0000000000000D+00  0.0000000000000D+00
392  3.9100000000000D+00  0.0000000000000D+00  0.0000000000000D+00
393  3.9200000000000D+00  0.0000000000000D+00  0.0000000000000D+00
394  3.9300000000000D+00  0.0000000000000D+00  0.0000000000000D+00
395  3.9400000000000D+00  0.0000000000000D+00  0.0000000000000D+00
396  3.9500000000000D+00  0.0000000000000D+00  0.0000000000000D+00
397  3.9600000000000D+00  0.0000000000000D+00  0.0000000000000D+00
398  3.9700000000000D+00  0.0000000000000D+00  0.0000000000000D+00
399  3.9800000000000D+00  0.0000000000000D+00  0.0000000000000D+00
400  3.9900000000000D+00  0.0000000000000D+00  0.0000000000000D+00
401  4.0000000000000D+00  0.0000000000000D+00  0.0000000000000D+00
402  4.0100000000000D+00  0.0000000000000D+00  0.0000000000000D+00
403  4.0200000000000D+00  0.0000000000000D+00  0.0000000000000D+00
404  4.0300000000000D+00  0.0000000000000D+00  0.0000000000000D+00
405  4.0400000000000D+00  0.0000000000000D+00  0.0000000000000D+00
406  4.0500000000000D+00  0.0000000000000D+00  0.0000000000000D+00
407  4.0600000000000D+00  0.0000000000000D+00  0.0000000000000D+00
408  4.0700000000000D+00  0.0000000000000D+00  0.0000000000000D+00
409  4.0800000000000D+00  0.0000000000000D+00  0.0000000000000D+00
410  4.0900000000000D+00  0.0000000000000D+00  0.0000000000000D+00
411  4.1000000000000D+00  0.0000000000000D+00  0.0000000000000D+00
412  4.1100000000000D+00  0.0000000000000D+00  0.0000000000000D+00
413  4.1200000000000D+00  0.0000000000000D+00  0.0000000000000D+00
414  4.1300000000000D+00  0.0000000000000D+00  0.0000000000000D+00
415  4.1400000000000D+00  0.0000000000000D+00  0.0000000000000D+00
416  4.1500000000000D+00  0.0000000000000D+00  0.0000000000000D+00
417  4.1600000000000D+00  0.0000000000000D+00  0.0000000000000D+00
418  4.1700000000000D+00  0.0000000000000D+00  0.0000000000000D+00
419  4.1800000000000D+00  0.0000000000000D+00  0.0000000000000D+00
420  4.1900000000000D+00  0.0000000000000D+00  0.0000000000000D+00
421  4.2000000000000D+00  0.0000000000000D+00  0.0000000000000D+00
422  4.2100000000000D+00  0.0000000000000D+00  0.0000000000000D+00
423  4.2200000000000D+00  0.0000000000000D+00  0.0000000000000D+00
424  4.2300000000000D+00  0.0000000000000D+00  0.0000000000000D+00
425  4.2400000000000D+00  0.0000000000000D+00  0.0000000000000D+00
426  4.2500000000000D+00  0.0000000000000D+00  0.0000000000000D+00
427  4.2600000000000D+00  0.0000000000000D+00  0.0000000000000D+00
428  4.2700000000000D+00  0.0000000000000D+00  0.0000000000000D+00
429  4.2800000000000D+00  0.0000000000000D+00  0.0000000000000D+00
430  4.2900000000000D+00  0.0000000000000D+00  0.0000000000000D+00
431  4.3000000000000D+00  0.0000000000000D+00  0.0000000000000D+00
432  4.3100000000000D+00  0.0000000000000D+00  0.0000000000000D+00
433  4.3200000000000D+00  0.0000000000000D+00  0.0000000000000D+00
434  4.3300000000000D+00  0.0000000000000D+00  0.0000000000000D+00
435  4.3400000000000D+00  0.0000000000000D+00  0.0000000000000D+00
436  4.3500000000000D+00  0.0000000000000D+00  0.0000000000000D+00
437  4.3600000000000D+00  0.0000000000000D+00  0.0000000000000D+00
438  4.3700000000000D+00  0.0000000000000D+00  0.0000000000000D+00
439  4.3800000000000D+00  0.0000000000000D+00  0.0000000000000D+00
440  4.3900000000000D+00  0.0000000000000D+00  0.0000000000000D+00
441  4.4000000000000D+00  0.0000000000000D+00  0.0000000000000D+00
442  4.4100000000000D+00  0.0000000000000D+00  0.0000000000000D+00
443  4.4200000000000D+00  0.0000000000000D+00  0.0000000000000D+00