<?xml version="1.0" encoding="UTF-8" ?>
<psml version="1.1" energy_unit="hartree" length_unit="bohr"
 uuid="1105b6a0-53a0-11e8-5311-a086effbe2e0"
 xmlns="http://esl.cecam.org/PSML/ns/1.1">
<provenance creator="ONCVPSP-3.3.0+psml-3.3.0-73 (fully-relativistic)"
 date="2018-05-09">
<annotation action="semilocal-pseudopotential-generation"
 action-cont="projectors-generation" />
<input-file name="oncvpsp-input">
<![CDATA[# atsym z nc nv iexc psfile
Rn 86 12 3 -116133 upf
# n l f
1 0 2.0
2 0 2.0
2 1 6.0
3 0 2.0
3 1 6.0
3 2 10.0
4 0 2.0
4 1 6.0
4 2 10.0
5 0 2.0
5 1 6.0
4 3 14.0
5 2 10.0
6 0 2.0
6 1 6.0
# lmax
2
# l rc ep ncon nbas qcut
0 2.2 0.0 4 7 3.6
1 2.0 0.0 4 7 4.6
2 1.8 0.0 4 8 8.4
# lloc lpopt rc5 dvloc0
4 5 1.8 0.0
# l nproj debl
0 2 2.8
1 2 2.5
2 2 1.8
# icmod fcfact rcfact
3 6.0 1.34
# epsh1 epsh2 depsh
-12.0 12.0 0.02
# rlmax drl
6.0 0.01
 0
]]>
</input-file>
</provenance>
<pseudo-atom-spec atomic-label="Rn" atomic-number="86" z-pseudo="18"
 flavor="Hamann&apos;s oncvpsp" relativity="dirac" spin-dft="no"
 core-corrections="yes">
<annotation pseudo-energy="-109.918382206" />
<exchange-correlation>
<annotation oncvpsp-xc-code="-116133" oncvpsp-xc-type="libxc-interface" />
<libxc-info number-of-functionals="2">
<functional name="Perdew, Burke &amp; Ernzerhof SOL (GGA)" type="exchange"
 id="116" />
<functional name="Perdew, Burke &amp; Ernzerhof SOL (GGA)" type="correlation"
 id="133" />
</libxc-info>
</exchange-correlation>
<valence-configuration total-valence-charge="18">
<shell n="5" l="d" occupation="10" />
<shell n="6" l="s" occupation="2" />
<shell n="6" l="p" occupation="6" />
</valence-configuration>
</pseudo-atom-spec>
<grid npts="457">
<annotation type="sampled from oncvpsp log grid"
 recipe="r(i:1..N) = r1*exp(a*(i-1)) + r=0; resampled"
 recipe-cont="r1: scale; a: step" scale="0.581395348837E-05"
 step="0.119285708653E-01" delta="0.500000000000E-02" rmax="44.0749834721" />
<grid-data>
  0.000000000000E+00  5.032944516527E-03  1.005291170046E-02  1.508097059243E-02
  2.032086102386E-02  2.549011784273E-02  3.085034629218E-02  3.602522532560E-02
  4.107639707330E-02  4.628043884812E-02  5.152548411822E-02  5.668474287617E-02
  6.236059941843E-02  6.779128537727E-02  7.282105115488E-02  7.822399976325E-02
  8.402781945494E-02  8.919194941589E-02  9.467345329450E-02  1.004918360615E-01
  1.066678014120E-01  1.118807563599E-01  1.173484732785E-01  1.230834026227E-01
  1.290986033132E-01  1.354077724720E-01  1.420252766125E-01  1.471997869097E-01
  1.525628239076E-01  1.581212563368E-01  1.638822031812E-01  1.698530427959E-01
  1.760414223571E-01  1.824552676560E-01  1.891027932499E-01  1.959925129832E-01
  2.031332508913E-01  2.105341525020E-01  2.156172890801E-01  2.208231529076E-01
  2.261547071114E-01  2.316149863599E-01  2.372070985906E-01  2.429342267789E-01
  2.487996307503E-01  2.548066490351E-01  2.609587007694E-01  2.672592876408E-01
  2.737119958816E-01  2.803204983102E-01  2.870885564214E-01  2.940200225276E-01
  3.011188419515E-01  3.083890552716E-01  3.158348006221E-01  3.234603160483E-01
  3.312699419190E-01  3.392681233967E-01  3.474594129680E-01  3.558484730347E-01
  3.644400785676E-01  3.732391198245E-01  3.822506051336E-01  3.914796637439E-01
  4.009315487454E-01  4.106116400583E-01  4.205254474958E-01  4.255717528658E-01
  4.306786139002E-01  4.358467572670E-01  4.410769183542E-01  4.463698413744E-01
  4.517262794709E-01  4.571469948246E-01  4.626327587625E-01  4.681843518676E-01
  4.738025640900E-01  4.794881948591E-01  4.852420531974E-01  4.910649578358E-01
  4.969577373298E-01  5.029212301778E-01  5.089562849399E-01  5.150637603592E-01
  5.212445254835E-01  5.274994597893E-01  5.338294533068E-01  5.402354067465E-01
  5.467182316274E-01  5.532788504069E-01  5.599181966118E-01  5.666372149712E-01
  5.734368615508E-01  5.803181038894E-01  5.872819211361E-01  5.943293041897E-01
  6.014612558400E-01  6.086787909101E-01  6.159829364010E-01  6.233747316378E-01
  6.308552284175E-01  6.384254911585E-01  6.460865970524E-01  6.538396362170E-01
  6.616857118516E-01  6.696259403938E-01  6.776614516786E-01  6.857933890987E-01
  6.940229097679E-01  7.023511846851E-01  7.107793989013E-01  7.193087516881E-01
  7.279404567084E-01  7.366757421889E-01  7.455158510952E-01  7.544620413083E-01
  7.635155858040E-01  7.726777728337E-01  7.819499061077E-01  7.913333049810E-01
  8.008293046407E-01  8.104392562964E-01  8.201645273720E-01  8.300065017004E-01
  8.399665797208E-01  8.500461786775E-01  8.602467328216E-01  8.705696936155E-01
  8.810165299389E-01  8.915887282981E-01  9.022877930377E-01  9.131152465542E-01
  9.240726295128E-01  9.351615010670E-01  9.463834390798E-01  9.577400403487E-01
  9.692329208329E-01  9.808637158829E-01  9.926340804735E-01  1.004545689439E+00
  1.016600237712E+00  1.028799440565E+00  1.041145033852E+00  1.053638774258E+00
  1.066282439549E+00  1.079077828824E+00  1.092026762770E+00  1.105131083923E+00
  1.118392656930E+00  1.131813368813E+00  1.145395129239E+00  1.159139870790E+00
  1.173049549239E+00  1.187126143830E+00  1.201371657556E+00  1.215788117447E+00
  1.230377574856E+00  1.245142105754E+00  1.260083811023E+00  1.275204816756E+00
  1.290507274557E+00  1.305993361851E+00  1.321665282194E+00  1.337525265580E+00
  1.353575568767E+00  1.369818475592E+00  1.386256297299E+00  1.402891372867E+00
  1.419726069341E+00  1.436762782173E+00  1.454003935559E+00  1.471451982786E+00
  1.489109406579E+00  1.506978719458E+00  1.525062464092E+00  1.543363213661E+00
  1.561883572225E+00  1.580626175092E+00  1.599593689193E+00  1.618788813463E+00
  1.638214279225E+00  1.657872850575E+00  1.677767324782E+00  1.697900532680E+00
  1.718275339072E+00  1.738894643141E+00  1.759761378858E+00  1.780878515405E+00
  1.802249057589E+00  1.823876046281E+00  1.845762558836E+00  1.867911709542E+00
  1.890326650056E+00  1.913010569857E+00  1.935966696695E+00  1.959198297056E+00
  1.982708676620E+00  2.006501180740E+00  2.030579194909E+00  2.054946145248E+00
  2.079605498991E+00  2.104560764979E+00  2.129815494158E+00  2.155373280088E+00
  2.181237759449E+00  2.207412612563E+00  2.233901563913E+00  2.260708382680E+00
  2.287836883272E+00  2.315290925872E+00  2.343074416982E+00  2.371191309986E+00
  2.399645605706E+00  2.428441352974E+00  2.457582649210E+00  2.487073641001E+00
  2.516918524693E+00  2.547121546989E+00  2.577687005553E+00  2.608619249619E+00
  2.639922680615E+00  2.671601752782E+00  2.703660973816E+00  2.736104905501E+00
  2.768938164367E+00  2.802165422340E+00  2.835791407408E+00  2.869820904297E+00
  2.904258755148E+00  2.939109860210E+00  2.974379178533E+00  3.010071728675E+00
  3.046192589419E+00  3.082746900492E+00  3.119739863298E+00  3.157176741658E+00
  3.195062862557E+00  3.233403616908E+00  3.272204460311E+00  3.311470913835E+00
  3.351208564801E+00  3.391423067578E+00  3.432120144389E+00  3.473305586122E+00
  3.514985253155E+00  3.557165076193E+00  3.599851057108E+00  3.643049269793E+00
  3.686765861030E+00  3.731007051363E+00  3.775779135979E+00  3.821088485611E+00
  3.866941547438E+00  3.913344846008E+00  3.960304984160E+00  4.007828643970E+00
  4.055922587697E+00  4.104593658750E+00  4.153848782655E+00  4.203694968046E+00
  4.254139307663E+00  4.305188979355E+00  4.356851247107E+00  4.409133462072E+00
  4.462043063617E+00  4.515587580381E+00  4.569774631345E+00  4.624611926921E+00
  4.680107270045E+00  4.736268557285E+00  4.793103779972E+00  4.850621025332E+00
  4.908828477636E+00  4.967734419368E+00  5.027347232400E+00  5.087675399189E+00
  5.148727503979E+00  5.210512234027E+00  5.273038380835E+00  5.336314841405E+00
  5.400350619502E+00  5.465154826936E+00  5.530736684859E+00  5.597105525078E+00
  5.664270791379E+00  5.732242040875E+00  5.801028945366E+00  5.870641292710E+00
  5.941088988223E+00  6.012382056081E+00  6.084530640754E+00  6.157545008443E+00
  6.231435548545E+00  6.306212775127E+00  6.381887328429E+00  6.458469976370E+00
  6.535971616086E+00  6.614403275479E+00  6.693776114785E+00  6.774101428163E+00
  6.855390645300E+00  6.937655333044E+00  7.020907197041E+00  7.105158083405E+00
  7.190419980406E+00  7.276705020171E+00  7.364025480413E+00  7.452393786178E+00
  7.541822511612E+00  7.632324381751E+00  7.723912274332E+00  7.816599221624E+00
  7.910398412284E+00  8.005323193231E+00  8.101387071550E+00  8.198603716409E+00
  8.296986961006E+00  8.396550804538E+00  8.497309414192E+00  8.599277127162E+00
  8.702468452688E+00  8.806898074121E+00  8.912580851010E+00  9.019531821222E+00
  9.127766203077E+00  9.237299397514E+00  9.348146990284E+00  9.460324754167E+00
  9.573848651217E+00  9.688734835032E+00  9.804999653052E+00  9.922659648889E+00
  1.004173156468E+01  1.016223234345E+01  1.028417913157E+01  1.040758928115E+01
  1.053248035253E+01  1.065887011676E+01  1.078677655816E+01  1.091621787686E+01
  1.104721249138E+01  1.117977904127E+01  1.131393638977E+01  1.144970362645E+01
  1.158710006996E+01  1.172614527080E+01  1.186685901405E+01  1.200926132222E+01
  1.215337245809E+01  1.229921292759E+01  1.244680348272E+01  1.259616512451E+01
  1.274731910600E+01  1.290028693528E+01  1.305509037850E+01  1.321175146304E+01
  1.337029248060E+01  1.353073599036E+01  1.369310482225E+01  1.385742208012E+01
  1.402371114508E+01  1.419199567882E+01  1.436229962696E+01  1.453464722249E+01
  1.470906298916E+01  1.488557174503E+01  1.506419860597E+01  1.524496898924E+01
  1.542790861711E+01  1.561304352051E+01  1.580040004276E+01  1.599000484327E+01
  1.618188490139E+01  1.637606752021E+01  1.657258033045E+01  1.677145129442E+01
  1.697270870995E+01  1.717638121447E+01  1.738249778904E+01  1.759108776251E+01
  1.780218081566E+01  1.801580698545E+01  1.823199666928E+01  1.845078062931E+01
  1.867218999686E+01  1.889625627682E+01  1.912301135214E+01  1.935248748837E+01
  1.958471733823E+01  1.981973394629E+01  2.005757075364E+01  2.029826160269E+01
  2.054184074192E+01  2.078834283082E+01  2.103780294479E+01  2.129025658013E+01
  2.154573965909E+01  2.180428853500E+01  2.206593999742E+01  2.233073127739E+01
  2.259870005272E+01  2.286988445335E+01  2.314432306679E+01  2.342205494359E+01
  2.370311960292E+01  2.398755703815E+01  2.427540772261E+01  2.456671261528E+01
  2.486151316666E+01  2.515985132466E+01  2.546176954056E+01  2.576731077505E+01
  2.607651850435E+01  2.638943672640E+01  2.670610996712E+01  2.702658328672E+01
  2.735090228616E+01  2.767911311360E+01  2.801126247096E+01  2.834739762061E+01
  2.868756639206E+01  2.903181718876E+01  2.938019899503E+01  2.973276138297E+01
  3.008955451956E+01  3.045062917380E+01  3.081603672388E+01  3.118582916457E+01
  3.156005911455E+01  3.193877982392E+01  3.232204518181E+01  3.270990972399E+01
  3.310242864068E+01  3.349965778436E+01  3.390165367778E+01  3.430847352191E+01
  3.472017520417E+01  3.513681730662E+01  3.555845911430E+01  3.598516062367E+01
  3.641698255116E+01  3.685398634177E+01  3.729623417787E+01  3.774378898801E+01
  3.819671445586E+01  3.865507502933E+01  3.911893592969E+01  3.958836316084E+01
  4.006342351877E+01  4.054418460100E+01  4.103071481621E+01  4.152308339400E+01
  4.202136039473E+01  4.252561671947E+01  4.303592412010E+01  4.355235520954E+01
  4.407498347206E+01
</grid-data>
</grid>
<valence-charge total-charge="18" is-unscreening-charge="yes"
 rescaled-to-z-pseudo="no">
<radfunc>
<data npts="457">
  8.465091049023E-02  8.466669014292E-02  8.471647856659E-02  8.480827437386E-02
  8.496272627500E-02  8.519390039468E-02  8.554390170225E-02  8.602082402260E-02
  8.665405026683E-02  8.752198440527E-02  8.866719697148E-02  9.011224420849E-02
  9.213655901168E-02  9.457474424162E-02  9.734019318514E-02  1.009330696462E-01
  1.056093526685E-01  1.105730599884E-01  1.167684397821E-01  1.245058492169E-01
  1.341731413316E-01  1.436179739601E-01  1.549069117121E-01  1.683989972373E-01
  1.845212562873E-01  2.037807822080E-01  2.267786924947E-01  2.469036110129E-01
  2.698752387173E-01  2.960854106707E-01  3.259765994998E-01  3.600476254364E-01
  3.988598033051E-01  4.430435044424E-01  4.933050917137E-01  5.504341604381E-01
  6.153109861091E-01  6.889140401606E-01  7.433614263858E-01  8.025153639803E-01
  8.667477126110E-01  9.364542302822E-01  1.012055245400E+00  1.093996191942E+00
  1.182747973637E+00  1.278807118435E+00  1.382695679569E+00  1.494960834237E+00
  1.616174125393E+00  1.746930286351E+00  1.887845582094E+00  2.039555595262E+00
  2.202712379143E+00  2.377980894583E+00  2.566034643026E+00  2.767550403915E+00
  2.983201982078E+00  3.213652869591E+00  3.459547727664E+00  3.721502597719E+00
  4.000093757686E+00  4.295845150318E+00  4.609214325703E+00  4.940576860926E+00
  5.290209246873E+00  5.658270266170E+00  6.044780928120E+00  6.244918528287E+00
  6.449603076876E+00  6.658788735622E+00  6.872416848599E+00  7.090415192798E+00
  7.312697222346E+00  7.539161309770E+00  7.769689988049E+00  8.004149197619E+00
  8.242387542878E+00  8.484235563188E+00  8.729505023756E+00  8.977988232258E+00
  9.229457387458E+00  9.483663966555E+00  9.740338158375E+00  9.999188349992E+00
  1.025990067471E+01  1.052213862979E+01  1.078554277256E+01  1.104973050396E+01
  1.131429594880E+01  1.157880994221E+01  1.184282013192E+01  1.210585120617E+01
  1.236740525689E+01  1.262696228795E+01  1.288398087776E+01  1.313789900555E+01
  1.338813504990E+01  1.363408896789E+01  1.387514366206E+01  1.411066654213E+01
  1.434001128670E+01  1.456251980961E+01  1.477752443386E+01  1.498435027459E+01
  1.518231783084E+01  1.537074578401E+01  1.554895399867E+01  1.571626671925E+01
  1.587201595362E+01  1.601554503196E+01  1.614621232677E+01  1.626339511670E+01
  1.636649357426E+01  1.645493485426E+01  1.652817725690E+01  1.658571443642E+01
  1.662707962316E+01  1.665184982406E+01  1.665964996414E+01  1.665015692856E+01
  1.662310346313E+01  1.657828188903E+01  1.651554758593E+01  1.643482219695E+01
  1.633609650826E+01  1.621943295618E+01  1.608496771566E+01  1.593291232504E+01
  1.576355480476E+01  1.557726023009E+01  1.537447072221E+01  1.515570482631E+01
  1.492155625091E+01  1.467269194878E+01  1.440984952676E+01  1.413383397972E+01
  1.384551375174E+01  1.354581613703E+01  1.323572204170E+01  1.291626013780E+01
  1.258850044991E+01  1.225354742493E+01  1.191253254466E+01  1.156660654998E+01
  1.121693135383E+01  1.086467172768E+01  1.051098685283E+01  1.015702183322E+01
  9.803899270437E+00  9.452711003951E+00  9.104510120449E+00  8.760303335103E+00
  8.421043844685E+00  8.087624747727E+00  7.760873120307E+00  7.441544827601E+00
  7.130320141284E+00  6.827800221201E+00  6.534504506775E+00  6.250869049591E+00
  5.977245803757E+00  5.713902875283E+00  5.461025716293E+00  5.218719234536E+00
  4.987010773958E+00  4.765853908188E+00  4.555132976115E+00  4.354668277504E+00
  4.164221837082E+00  3.983503637855E+00  3.812178218813E+00  3.649871528540E+00
  3.496177924734E+00  3.350667210035E+00  3.212891596829E+00  3.082392497637E+00
  2.958707043105E+00  2.841374236343E+00  2.729940660116E+00  2.623965662184E+00
  2.523025953624E+00  2.426719565364E+00  2.334669119286E+00  2.246524382316E+00
  2.161964084839E+00  2.080696998808E+00  2.002462285930E+00  1.927029142332E+00
  1.854195782864E+00  1.783787384904E+00  1.715651983139E+00  1.649655792787E+00
  1.585682474516E+00  1.523632130352E+00  1.463420225127E+00  1.404976406041E+00
  1.348243254458E+00  1.293175004197E+00  1.239735866862E+00  1.187896748769E+00
  1.137631124752E+00  1.088913450899E+00  1.041718765146E+00  9.960216636824E-01
  9.517957426984E-01  9.090131725101E-01  8.676446875464E-01  8.276606615663E-01
  7.890326667155E-01  7.517335276806E-01  7.157367945313E-01  6.810166923096E-01
  6.475479271628E-01  6.153055403876E-01  5.842647811663E-01  5.544009992528E-01
  5.256895563751E-01  4.981057550658E-01  4.716247836022E-01  4.462216757191E-01
  4.218712837557E-01  3.985482639131E-01  3.762270723211E-01  3.548819706493E-01
  3.344870400564E-01  3.150162022429E-01  2.964432466309E-01  2.787418624891E-01
  2.618856750913E-01  2.458482849826E-01  2.306033095172E-01  2.161244258947E-01
  2.023854150035E-01  1.893602054405E-01  1.770229171539E-01  1.653479042185E-01
  1.543097963222E-01  1.438835385822E-01  1.340444294390E-01  1.247681563239E-01
  1.160308289423E-01  1.078090100223E-01  1.000797434337E-01  9.282057962357E-02
  8.600959835353E-02  7.962542875779E-02  7.364726677122E-02  6.805489000109E-02
  6.282867013664E-02  5.794958300579E-02  5.339921639858E-02  4.915977578263E-02
  4.521408803659E-02  4.154560332532E-02  3.813839523396E-02  3.497715926993E-02
  3.204720983186E-02  2.933447573407E-02  2.682549436511E-02  2.450740455029E-02
  2.236793818113E-02  2.039541067020E-02  1.857871028786E-02  1.690728643785E-02
  1.537113693166E-02  1.396079432611E-02  1.266731139470E-02  1.148224580985E-02
  1.039764412030E-02  9.406025114046E-03  8.500362662914E-03  7.674068149116E-03
  6.920972576656E-03  6.235308471570E-03  5.611691674110E-03  5.045103123511E-03
  4.530870731911E-03  4.064651438531E-03  3.642413528592E-03  3.260419293897E-03
  2.915208103758E-03  2.603579946288E-03  2.322579491201E-03  2.069480716375E-03
  1.841772131735E-03  1.637142625652E-03  1.453467951170E-03  1.288797862011E-03
  1.141343901649E-03  1.009467842768E-03  8.916707691316E-04  7.865827874180E-04
  6.929533527795E-04  6.096421888406E-04  5.356107804556E-04  4.699144157994E-04
  4.116947531774E-04  3.601728872558E-04  3.146428891727E-04  2.744657951020E-04
  2.390640182654E-04  2.079161600284E-04  1.805521965392E-04  1.565490183063E-04
  1.355263011228E-04  1.171426877893E-04  1.010922611431E-04  8.710128993080E-05
  7.492523006234E-05  6.434596473975E-05  5.516926785407E-05  4.722247589634E-05
  4.035235442475E-05  3.442314587851E-05  2.931478623087E-05  2.492127863579E-05
  2.114921284772E-05  1.791641978877E-05  1.515075120467E-05  1.278897489563E-05
  1.077577653216E-05  9.062859572789E-06  7.608135291143E-06  6.374995396125E-06
  5.331660190464E-06  4.450595661263E-06  3.707993330111E-06  3.083307110241E-06
  2.558841823304E-06  2.119388418132E-06  1.751901307799E-06  1.445213598777E-06
  1.189786326572E-06  9.774881355338E-07  8.014021462749E-07  6.556570421981E-07
  5.352796770090E-07  4.360667578942E-07  3.544733945535E-07  2.875165228330E-07
  2.326914137952E-07  1.878996652369E-07  1.513872435675E-07  1.216913002775E-07
  9.759462970284E-08  7.808676421017E-08  6.233082007026E-08  4.963531297164E-08
  3.943025714897E-08  3.124694725603E-08  2.470089817663E-08  1.947748568913E-08
  1.531989100139E-08  1.201900534201E-08  9.404997680013E-09  7.340289861196E-09
  5.713719567850E-09  4.435703060290E-09  3.434237135863E-09  2.651603595330E-09
  2.041660151335E-09  1.567619525436E-09  1.200233799993E-09  9.163142268285E-10
  6.975279223125E-10  5.294224456756E-10  4.006373838743E-10  3.022689476168E-10
  2.273593915599E-10  1.704879589796E-10  1.274441503683E-10  9.496754249652E-11
  7.054124044609E-11  5.222841742000E-11  3.854336122733E-11  2.835006711258E-11
  2.078274961415E-11  1.518373881433E-11  1.105511898666E-11  8.021194390321E-12
  5.799456601711E-12  4.178204513342E-12  2.999352235683E-12  2.145268511240E-12
  1.528737937893E-12  1.085330926082E-12  7.676254679248E-13  5.408473490158E-13
  3.795928268263E-13  2.653742823095E-13  1.847891838549E-13  1.281593293052E-13
  8.852352534805E-14  6.089484783154E-14  4.171517712029E-14  2.845623165497E-14
  1.932894871237E-14  1.307266587674E-14  8.802832393324E-15  5.901467776656E-15
  3.938707224736E-15  2.616856156599E-15  1.730671543521E-15  1.139289199774E-15
  7.464718270229E-16  4.867750091530E-16  3.159028475481E-16  2.040158593600E-16
  1.311094043493E-16  8.383732015291E-17  5.333942774971E-17  3.376293698913E-17
  2.126112060436E-17  1.331861285327E-17  8.299105203880E-18  5.143694496946E-18
  3.170426968994E-18  1.943679924844E-18  1.184997597559E-18  7.184007135743E-19
  4.330550078808E-19  2.595472660948E-19  1.546523608708E-19  9.160780331503E-20
  5.394022040923E-20  3.156930518661E-20  1.836352596659E-20  1.061575709588E-20
  0.000000000000E+00  0.000000000000E+00  0.000000000000E+00  0.000000000000E+00
  0.000000000000E+00  0.000000000000E+00  0.000000000000E+00  0.000000000000E+00
  0.000000000000E+00  0.000000000000E+00  0.000000000000E+00  0.000000000000E+00
  0.000000000000E+00  0.000000000000E+00  0.000000000000E+00  0.000000000000E+00
  0.000000000000E+00  0.000000000000E+00  0.000000000000E+00  0.000000000000E+00
  0.000000000000E+00  0.000000000000E+00  0.000000000000E+00  0.000000000000E+00
  0.000000000000E+00  0.000000000000E+00  0.000000000000E+00  0.000000000000E+00
  0.000000000000E+00
</data>
</radfunc>
</valence-charge>
<pseudocore-charge matching-radius="0.913115246554"
 number-of-continuous-derivatives="4">
<annotation model-charge-form="Teter function with specified parameters" />
<radfunc>
<data npts="290">
  9.455670341457E+01  9.455164889902E+01  9.453653895954E+01  9.451132941006E+01
  9.447433643583E+01  9.442713146247E+01  9.436696388046E+01  9.429805925000E+01
  9.422057371028E+01  9.413020035800E+01  9.402831734466E+01  9.391755729713E+01
  9.378366931506E+01  9.364380421073E+01  9.350404892315E+01  9.334302875690E+01
  9.315755112028E+01  9.298168020468E+01  9.278390037751E+01  9.256153543235E+01
  9.231159653092E+01  9.208956411524E+01  9.184587722088E+01  9.157848742677E+01
  9.128516586950E+01  9.096349018732E+01  9.061083115387E+01  9.032429850403E+01
  9.001745172589E+01  8.968892580348E+01  8.933727555628E+01  8.896097276019E+01
  8.855840348515E+01  8.812786572216E+01  8.766756738427E+01  8.717562477944E+01
  8.665006166811E+01  8.608880903458E+01  8.569374961015E+01  8.528120673720E+01
  8.485050007922E+01  8.440093221684E+01  8.393178924500E+01  8.344234151563E+01
  8.293184454073E+01  8.239954007193E+01  8.184465737328E+01  8.126641470531E+01
  8.066402103925E+01  8.003667802127E+01  7.938358220741E+01  7.870392759091E+01
  7.799690844405E+01  7.726172249759E+01  7.649757448078E+01  7.570368004566E+01
  7.487927009892E+01  7.402359556443E+01  7.313593259856E+01  7.221558827957E+01
  7.126190679041E+01  7.027427611195E+01  6.925213524093E+01  6.819498194298E+01
  6.710238104658E+01  6.597397327819E+01  6.480948463213E+01  6.421365009229E+01
  6.360873626105E+01  6.299473735533E+01  6.237165486352E+01  6.173949789486E+01
  6.109828353482E+01  6.044803720615E+01  5.978879303502E+01  5.912059422161E+01
  5.844349341451E+01  5.775755308811E+01  5.706284592223E+01  5.635945518306E+01
  5.564747510441E+01  5.492701126823E+01  5.419818098324E+01  5.346111366044E+01
  5.271595118418E+01  5.196284827727E+01  5.120197285879E+01  5.043350639280E+01
  4.965764422630E+01  4.887459591467E+01  4.808458553251E+01  4.728785196806E+01
  4.648464919889E+01  4.567524654667E+01  4.485992890877E+01  4.403899696415E+01
  4.321276735110E+01  4.238157281409E+01  4.154576231729E+01  4.070570112160E+01
  3.986177082273E+01  3.901436934719E+01  3.816391090331E+01  3.731082588425E+01
  3.645556072015E+01  3.559857767612E+01  3.474035459333E+01  3.388138457006E+01
  3.302217557980E+01  3.216325002360E+01  3.130514421376E+01  3.044840778643E+01
  2.959360304045E+01  2.874130420013E+01  2.789209660008E+01  2.704657578994E+01
  2.620534655773E+01  2.536902187043E+01  2.453822173102E+01  2.371357195142E+01
  2.289570284145E+01  2.208524781416E+01  2.128284190866E+01  2.048912023196E+01
  1.970471632212E+01  1.893026043543E+01  1.816637776142E+01  1.741368656981E+01
  1.667279629469E+01  1.594430556164E+01  1.522880016469E+01  1.452685100074E+01
  1.383901196978E+01  1.316581785044E+01  1.250778216106E+01  1.186539501746E+01
  1.123912099949E+01  1.062939703909E+01  1.003663034365E+01  9.461196369097E+00
  8.903436857717E+00  8.363657956508E+00  7.842128432256E+00  7.339077999969E+00
  6.854695781534E+00  6.389128911648E+00  5.942481307985E+00  5.514812622385E+00
  5.106137389440E+00  4.716424388238E+00  4.345596232203E+00  3.993529200913E+00
  3.660053326470E+00  3.344952745446E+00  3.047966325634E+00  2.768788574786E+00
  2.507070836199E+00  2.262422773494E+00  2.034414144144E+00  1.822576858345E+00
  1.626407316667E+00  1.445369016577E+00  1.278895414537E+00  1.126393026840E+00
  9.872447488057E-01  8.608133684791E-01  7.464452475057E-01  6.434741386151E-01
  5.512251060646E-01  4.690185126350E-01  3.961740343577E-01  3.320146621807E-01
  2.758706483137E-01  2.270833541017E-01  1.850089560229E-01  1.490219668457E-01
  1.185185301607E-01  9.291944845289E-02  7.167290762371E-02  5.425686440630E-02
  4.018106743132E-02  2.898868775074E-02  2.025754035959E-02  1.360088458696E-02
  8.667798053926E-03  5.143126092460E-03  2.747015938430E-03  1.234052488640E-03
  3.920197665820E-04  4.031928266296E-05  2.808300480736E-05  2.320244772291E-04
  5.540765477277E-04  9.188680099706E-04  1.271094080855E-03  1.572836887095E-03
  1.800891938720E-03  1.944154872214E-03  2.001119553117E-03  1.977533990492E-03
  1.884254542521E-03  1.735331747698E-03  1.546353017239E-03  1.333058637064E-03
  1.110238358098E-03  8.909066377633E-04  6.857456860056E-04  5.027972201335E-04
  3.473765827645E-04  2.221769317539E-04  1.275268248944E-04  6.176188319260E-05
  2.167043138095E-05  2.974098229800E-06  8.072299584641E-07  1.016344747336E-05
  2.628348991945E-05  4.496528057031E-05  6.278451198030E-05  7.722152316684E-05
  8.669737027897E-05  9.052833295748E-05  8.881326355478E-05  8.227187039548E-05
  7.205403213609E-05  5.954049711393E-05  4.615389381081E-05  3.319606422952E-05
  2.172364926560E-05  1.246901746925E-05  5.808509615245E-06  1.775062690695E-06
  1.080411350830E-07  3.299288985765E-07  1.837696884969E-06  3.996285617862E-06
  6.222701136795E-06  8.051523127675E-06  9.175839444270E-06  9.461320586898E-06
  8.934851523516E-06  7.752376250068E-06  6.152982729101E-06  4.407486157637E-06
  2.769743087280E-06  1.437713343836E-06  5.291176042584E-07  7.378939896121E-08
  0.000000000000E+00  0.000000000000E+00  0.000000000000E+00  0.000000000000E+00
  0.000000000000E+00  0.000000000000E+00  0.000000000000E+00  0.000000000000E+00
  0.000000000000E+00  0.000000000000E+00  0.000000000000E+00  0.000000000000E+00
  0.000000000000E+00  0.000000000000E+00  0.000000000000E+00  0.000000000000E+00
  0.000000000000E+00  0.000000000000E+00  0.000000000000E+00  0.000000000000E+00
  0.000000000000E+00  0.000000000000E+00  0.000000000000E+00  0.000000000000E+00
  0.000000000000E+00  0.000000000000E+00  0.000000000000E+00  0.000000000000E+00
  0.000000000000E+00  0.000000000000E+00  0.000000000000E+00  0.000000000000E+00
  0.000000000000E+00  0.000000000000E+00  0.000000000000E+00  0.000000000000E+00
  0.000000000000E+00  0.000000000000E+00  0.000000000000E+00  0.000000000000E+00
  0.000000000000E+00  0.000000000000E+00
</data>
</radfunc>
</pseudocore-charge>
<semilocal-potentials set="lj">
<slps n="6" l="s" j="0.5" rc="2.20741261256" eref="-0.800056599374">
<radfunc>
<data npts="290">
 -3.332216182722E+00 -3.333891895762E+00 -3.338899447309E+00 -3.347248080906E+00
 -3.359485446281E+00 -3.375077552361E+00 -3.394913322072E+00 -3.417577356608E+00
 -3.442997550493E+00 -3.472557479632E+00 -3.505768551791E+00 -3.541737452395E+00
 -3.585029165301E+00 -3.630035222327E+00 -3.674784559353E+00 -3.726070377244E+00
 -3.784787170053E+00 -3.840110755406E+00 -3.901920403547E+00 -3.970904989844E+00
 -4.047808135237E+00 -4.115566378689E+00 -4.189334759698E+00 -4.269566038231E+00
 -4.356731173358E+00 -4.451316671111E+00 -4.553821067443E+00 -4.636200436180E+00
 -4.723533295830E+00 -4.816033180161E+00 -4.913910835422E+00 -5.017372142017E+00
 -5.126615772371E+00 -5.241830575729E+00 -5.363192684428E+00 -5.490862340841E+00
 -5.624980449870E+00 -5.765664868493E+00 -5.863148533007E+00 -5.963610978499E+00
 -6.067064881066E+00 -6.173515609481E+00 -6.282960631884E+00 -6.395388915785E+00
 -6.510780325205E+00 -6.629105019264E+00 -6.750322856840E+00 -6.874382812370E+00
 -7.001222408139E+00 -7.130767168780E+00 -7.262930103921E+00 -7.397611225166E+00
 -7.534697103756E+00 -7.674060475325E+00 -7.815559898231E+00 -7.959039471882E+00
 -8.104328621351E+00 -8.251241954430E+00 -8.399579196962E+00 -8.549125212046E+00
 -8.699650108299E+00 -8.850909442000E+00 -9.002644517503E+00 -9.154582789930E+00
 -9.306438373765E+00 -9.457912660626E+00 -9.608695049308E+00 -9.683726645266E+00
 -9.758463791019E+00 -9.832864684207E+00 -9.906886952779E+00 -9.980487691787E+00
 -1.005362350216E+01 -1.012625053151E+01 -1.019832451695E+01 -1.026980083003E+01
 -1.034063452383E+01 -1.041078038222E+01 -1.048019297131E+01 -1.054882669334E+01
 -1.061663584275E+01 -1.068357466488E+01 -1.074959741706E+01 -1.081465843235E+01
 -1.087871218594E+01 -1.094171336443E+01 -1.100361693788E+01 -1.106437823498E+01
 -1.112395302124E+01 -1.118229758050E+01 -1.123936879972E+01 -1.129512425730E+01
 -1.134952231500E+01 -1.140252221352E+01 -1.145408417198E+01 -1.150416949127E+01
 -1.155274066149E+01 -1.159976147339E+01 -1.164519713406E+01 -1.168901438667E+01
 -1.173118163444E+01 -1.177166906863E+01 -1.181044880052E+01 -1.184749499716E+01
 -1.188278402065E+01 -1.191629457063E+01 -1.194800782955E+01 -1.197790761010E+01
 -1.200598050438E+01 -1.203221603370E+01 -1.205660679838E+01 -1.207914862638E+01
 -1.209984071949E+01 -1.211868579580E+01 -1.213569022685E+01 -1.215086416775E+01
 -1.216422167849E+01 -1.217578083423E+01 -1.218556382265E+01 -1.219359702578E+01
 -1.219991108411E+01 -1.220454094030E+01 -1.220752586000E+01 -1.220890942700E+01
 -1.220873951018E+01 -1.220706819939E+01 -1.220395170794E+01 -1.219945023876E+01
 -1.219362781208E+01 -1.218655205221E+01 -1.217829393119E+01 -1.216892746752E+01
 -1.215852937812E+01 -1.214717868213E+01 -1.213495625541E+01 -1.212194433484E+01
 -1.210822597202E+01 -1.209388443628E+01 -1.207900256734E+01 -1.206366207849E+01
 -1.204794281177E+01 -1.203192194709E+01 -1.201567316805E+01 -1.199926578810E+01
 -1.198276384136E+01 -1.196622514380E+01 -1.194970033153E+01 -1.193323188438E+01
 -1.191685314457E+01 -1.190058734203E+01 -1.188444663964E+01 -1.186843121348E+01