<?xml version="1.0" encoding="UTF-8" ?>
<psml version="1.1" energy_unit="hartree" length_unit="bohr"
 uuid="af02cff0-53a0-11e8-6dfb-0bd476c68095"
 xmlns="http://esl.cecam.org/PSML/ns/1.1">
<provenance creator="ONCVPSP-3.3.0+psml-3.3.0-73 (fully-relativistic)"
 date="2018-05-09">
<annotation action="semilocal-pseudopotential-generation"
 action-cont="projectors-generation" />
<input-file name="oncvpsp-input">
<![CDATA[# atsym z nc nv iexc psfile
Mn 25 3 4 -116133 upf
# n l f
1 0 2.0
2 0 2.0
2 1 6.0
3 0 2.0
3 1 6.0
3 2 5.0
4 0 2.0
# lmax
2
# l rc ep ncon nbas qcut
0 1.1 0.0 4 7 11.0
1 1.1 0.0 4 7 10.8
2 1.35 0.0 4 7 11.4
# lloc lpopt rc5 dvloc0
4 5 1.1 0.0
# l nproj debl
0 2 1.0
1 2 1.0
2 2 1.0
# icmod fcfact
3 4 1.75
# epsh1 epsh2 depsh
-50.0 12.0 0.02
# rlmax drl
6.0 0.01
 0
]]>
</input-file>
</provenance>
<pseudo-atom-spec atomic-label="Mn" atomic-number="25" z-pseudo="15"
 flavor="Hamann&apos;s oncvpsp" relativity="dirac" spin-dft="no"
 core-corrections="yes">
<annotation pseudo-energy="-103.843877932" />
<exchange-correlation>
<annotation oncvpsp-xc-code="-116133" oncvpsp-xc-type="libxc-interface" />
<libxc-info number-of-functionals="2">
<functional name="Perdew, Burke &amp; Ernzerhof SOL (GGA)" type="exchange"
 id="116" />
<functional name="Perdew, Burke &amp; Ernzerhof SOL (GGA)" type="correlation"
 id="133" />
</libxc-info>
</exchange-correlation>
<valence-configuration total-valence-charge="15">
<shell n="3" l="s" occupation="2" />
<shell n="3" l="p" occupation="6" />
<shell n="3" l="d" occupation="5" />
<shell n="4" l="s" occupation="2" />
</valence-configuration>
</pseudo-atom-spec>
<grid npts="458">
<annotation type="sampled from oncvpsp log grid"
 recipe="r(i:1..N) = r1*exp(a*(i-1)) + r=0; resampled"
 recipe-cont="r1: scale; a: step" scale="0.200000000000E-04"
 step="0.119285708653E-01" delta="0.500000000000E-02" rmax="44.3769870573" />
<grid-data>
  0.000000000000E+00  5.007342349535E-03  1.012179466165E-02  1.518430601833E-02
  2.021749050673E-02  2.536045174936E-02  3.069341316587E-02  3.584196802331E-02
  4.086744488362E-02  4.604501413403E-02  5.126337829839E-02  5.639639233938E-02
  6.204337627505E-02  6.744643678951E-02  7.245061657011E-02  7.782608083168E-02
  8.360037697896E-02  8.873823744356E-02  9.419185737129E-02  9.998064251273E-02
  1.061251912451E-01  1.113116283280E-01  1.167515314288E-01  1.224572876681E-01
  1.284418895367E-01  1.347189644807E-01  1.413028059321E-01  1.464509939291E-01
  1.517867496073E-01  1.573169067565E-01  1.630485481470E-01  1.689890146010E-01
  1.751459143940E-01  1.815271329993E-01  1.881408431876E-01  1.949955154940E-01
  2.020999290667E-01  2.094631829112E-01  2.145204619994E-01  2.196998440339E-01
  2.250042770683E-01  2.304367803338E-01  2.360004459582E-01  2.416984407254E-01
  2.475340078783E-01  2.535104689645E-01  2.596312257271E-01  2.658997620411E-01
  2.723196458958E-01  2.788945314263E-01  2.856281609931E-01  2.925243673121E-01
  2.995870756365E-01  3.068203059907E-01  3.142281754585E-01  3.218149005268E-01
  3.295847994851E-01  3.375422948838E-01  3.456919160515E-01  3.540383016727E-01
  3.625862024283E-01  3.713404836997E-01  3.803061283381E-01  3.894882395007E-01
  3.988920435552E-01  4.085228930548E-01  4.183862697847E-01  4.234069050222E-01
  4.284877878824E-01  4.336296413370E-01  4.388331970331E-01  4.440991953975E-01
  4.494283857422E-01  4.548215263711E-01  4.602793846876E-01  4.658027373038E-01
  4.713923701515E-01  4.770490785933E-01  4.827736675364E-01  4.885669515469E-01
  4.944297549654E-01  5.003629120250E-01  5.063672669693E-01  5.124436741729E-01
  5.185929982630E-01  5.248161142422E-01  5.311139076131E-01  5.374872745044E-01
  5.439371217985E-01  5.504643672601E-01  5.570699396672E-01  5.637547789432E-01
  5.705198362905E-01  5.773660743260E-01  5.842944672179E-01  5.913060008245E-01
  5.984016728344E-01  6.055824929084E-01  6.128494828233E-01  6.202036766172E-01
  6.276461207366E-01  6.351778741855E-01  6.428000086757E-01  6.505136087798E-01
  6.583197720852E-01  6.662196093502E-01  6.742142446624E-01  6.823048155983E-01
  6.904924733855E-01  6.987783830661E-01  7.071637236629E-01  7.156496883469E-01
  7.242374846070E-01  7.329283344223E-01  7.417234744354E-01  7.506241561286E-01
  7.596316460022E-01  7.687472257542E-01  7.779721924632E-01  7.873078587728E-01
  7.967555530781E-01  8.063166197150E-01  8.159924191516E-01  8.257843281814E-01
  8.356937401196E-01  8.457220650010E-01  8.558707297810E-01  8.661411785384E-01
  8.765348726809E-01  8.870532911530E-01  8.976979306469E-01  9.084703058146E-01
  9.193719494844E-01  9.304044128782E-01  9.415692658328E-01  9.528680970228E-01
  9.643025141870E-01  9.758741443573E-01  9.875846340896E-01  9.994356496986E-01
  1.011428877495E+00  1.023566024025E+00  1.035848816313E+00  1.048279002109E+00
  1.060858350134E+00  1.073588650336E+00  1.086471714140E+00  1.099509374710E+00
  1.112703487206E+00  1.126055929053E+00  1.139568600201E+00  1.153243423404E+00
  1.167082344485E+00  1.181087332618E+00  1.195260380610E+00  1.209603505177E+00
  1.224118747239E+00  1.238808172206E+00  1.253673870273E+00  1.268717956716E+00
  1.283942572196E+00  1.299349883063E+00  1.314942081660E+00  1.330721386639E+00
  1.346690043279E+00  1.362850323798E+00  1.379204527684E+00  1.395754982016E+00
  1.412504041800E+00  1.429454090302E+00  1.446607539386E+00  1.463966829858E+00
  1.481534431817E+00  1.499312844998E+00  1.517304599138E+00  1.535512254328E+00
  1.553938401380E+00  1.572585662197E+00  1.591456690143E+00  1.610554170425E+00
  1.629880820470E+00  1.649439390315E+00  1.669232662999E+00  1.689263454955E+00
  1.709534616415E+00  1.730049031812E+00  1.750809620193E+00  1.771819335636E+00
  1.793081167663E+00  1.814598141675E+00  1.836373319375E+00  1.858409799208E+00
  1.880710716798E+00  1.903279245400E+00  1.926118596345E+00  1.949232019501E+00
  1.972622803735E+00  1.996294277380E+00  2.020249808708E+00  2.044492806413E+00
  2.069026720090E+00  2.093855040731E+00  2.118981301219E+00  2.144409076834E+00
  2.170141985756E+00  2.196183689585E+00  2.222537893860E+00  2.249208348587E+00
  2.276198848770E+00  2.303513234955E+00  2.331155393774E+00  2.359129258500E+00
  2.387438809602E+00  2.416088075317E+00  2.445081132221E+00  2.474422105807E+00
  2.504115171077E+00  2.534164553130E+00  2.564574527767E+00  2.595349422101E+00
  2.626493615166E+00  2.658011538548E+00  2.689907677010E+00  2.722186569135E+00
  2.754852807964E+00  2.787911041660E+00  2.821365974160E+00  2.855222365850E+00
  2.889485034240E+00  2.924158854651E+00  2.959248760906E+00  2.994759746037E+00
  3.030696862990E+00  3.067065225346E+00  3.103870008050E+00  3.141116448146E+00
  3.178809845524E+00  3.216955563670E+00  3.255559030434E+00  3.294625738800E+00
  3.334161247665E+00  3.374171182637E+00  3.414661236829E+00  3.455637171671E+00
  3.497104817731E+00  3.539070075544E+00  3.581538916450E+00  3.624517383448E+00
  3.668011592049E+00  3.712027731154E+00  3.756572063927E+00  3.801650928694E+00
  3.847270739839E+00  3.893437988717E+00  3.940159244582E+00  3.987441155516E+00
  4.035290449383E+00  4.083713934775E+00  4.132718501993E+00  4.182311124016E+00
  4.232498857505E+00  4.283288843795E+00  4.334688309920E+00  4.386704569639E+00
  4.439345024475E+00  4.492617164769E+00  4.546528570746E+00  4.601086913595E+00
  4.656299956558E+00  4.712175556037E+00  4.768721662709E+00  4.825946322662E+00
  4.883857678534E+00  4.942463970676E+00  5.001773538324E+00  5.061794820784E+00
  5.122536358633E+00  5.184006794937E+00  5.246214876476E+00  5.309169454994E+00
  5.372879488454E+00  5.437354042315E+00  5.502602290823E+00  5.568633518313E+00
  5.635457120533E+00  5.703082605979E+00  5.771519597251E+00  5.840777832418E+00
  5.910867166407E+00  5.981797572404E+00  6.053579143273E+00  6.126222092992E+00
  6.199736758108E+00  6.274133599205E+00  6.349423202396E+00  6.425616280824E+00
  6.502723676194E+00  6.580756360309E+00  6.659725436632E+00  6.739642141872E+00
  6.820517847574E+00  6.902364061745E+00  6.985192430486E+00  7.069014739652E+00
  7.153842916528E+00  7.239689031526E+00  7.326565299904E+00  7.414484083503E+00
  7.503457892505E+00  7.593499387215E+00  7.684621379862E+00  7.776836836420E+00
  7.870158878457E+00  7.964600784999E+00  8.060175994419E+00  8.156898106352E+00
  8.254780883628E+00  8.353838254232E+00  8.454084313282E+00  8.555533325042E+00
  8.658199724942E+00  8.762098121642E+00  8.867243299101E+00  8.973650218691E+00
  9.081334021315E+00  9.190310029571E+00  9.300593749925E+00  9.412200874925E+00
  9.525147285424E+00  9.639449052849E+00  9.755122441483E+00  9.872183910781E+00
  9.990650117710E+00  1.011053791912E+01  1.023186437415E+01  1.035464674664E+01
  1.047890250760E+01  1.060464933769E+01  1.073190512975E+01  1.086068799130E+01
  1.099101624720E+01  1.112290844216E+01  1.125638334347E+01  1.139145994359E+01
  1.152815746291E+01  1.166649535247E+01  1.180649329670E+01  1.194817121626E+01
  1.209154927085E+01  1.223664786211E+01  1.238348763645E+01  1.253208948809E+01
  1.268247456194E+01  1.283466425669E+01  1.298868022777E+01  1.314454439050E+01
  1.330227892319E+01  1.346190627027E+01  1.362344914551E+01  1.378693053526E+01
  1.395237370168E+01  1.411980218610E+01  1.428923981233E+01  1.446071069008E+01
  1.463423921836E+01  1.480985008898E+01  1.498756829005E+01  1.516741910953E+01
  1.534942813884E+01  1.553362127651E+01  1.572002473183E+01  1.590866502861E+01
  1.609956900895E+01  1.629276383706E+01  1.648827700311E+01  1.668613632714E+01
  1.688636996307E+01  1.708900640263E+01  1.729407447946E+01  1.750160337321E+01
  1.771162261369E+01  1.792416208505E+01  1.813925203007E+01  1.835692305443E+01
  1.857720613109E+01  1.880013260466E+01  1.902573419592E+01  1.925404300627E+01
  1.948509152234E+01  1.971891262061E+01  1.995553957206E+01  2.019500604692E+01
  2.043734611949E+01  2.068259427292E+01  2.093078540419E+01  2.118195482905E+01
  2.143613828699E+01  2.169337194644E+01  2.195369240979E+01  2.221713671871E+01
  2.248374235934E+01  2.275354726765E+01  2.302658983486E+01  2.330290891288E+01
  2.358254381983E+01  2.386553434567E+01  2.415192075782E+01  2.444174380691E+01
  2.473504473260E+01  2.503186526939E+01  2.533224765262E+01  2.563623462445E+01
  2.594386943995E+01  2.625519587322E+01  2.657025822370E+01  2.688910132239E+01
  2.721177053826E+01  2.753831178472E+01  2.786877152613E+01  2.820319678445E+01
  2.854163514586E+01  2.888413476761E+01  2.923074438482E+01  2.958151331744E+01
  2.993649147725E+01  3.029572937497E+01  3.065927812747E+01  3.102718946500E+01
  3.139951573858E+01  3.177630992745E+01  3.215762564658E+01  3.254351715434E+01
  3.293403936019E+01  3.332924783251E+01  3.372919880650E+01  3.413394919218E+01
  3.454355658248E+01  3.495807926147E+01  3.537757621261E+01  3.580210712716E+01
  3.623173241269E+01  3.666651320164E+01  3.710651136006E+01  3.755178949638E+01
  3.800241097034E+01  3.845843990198E+01  3.891994118081E+01  3.938698047498E+01
  3.985962424068E+01  4.033793973156E+01  4.082199500834E+01  4.131185894844E+01
  4.180760125582E+01  4.230929247089E+01  4.281700398054E+01  4.333080802831E+01
  4.385077772465E+01  4.437698705735E+01
</grid-data>
</grid>
<valence-charge total-charge="15" is-unscreening-charge="yes"
 rescaled-to-z-pseudo="no">
<radfunc>
<data npts="458">
  1.694124552145E+00  1.699499432983E+00  1.716087035460E+00  1.743552931237E+00
  1.781757714687E+00  1.832024274690E+00  1.896139593329E+00  1.969627089457E+00
  2.052344122809E+00  2.148921760185E+00  2.257929524219E+00  2.376588750771E+00
  2.520234229410E+00  2.670530376797E+00  2.820944566834E+00  2.994529059085E+00
  3.194842680751E+00  3.385126540056E+00  3.599499289297E+00  3.840982869342E+00
  4.112963893521E+00  4.355038326682E+00  4.621188184822E+00  4.913746943643E+00
  5.235252522365E+00  5.588457850201E+00  5.976339394461E+00  6.291926405135E+00
  6.630254363440E+00  6.992832329718E+00  7.381238678747E+00  7.797116829001E+00
  8.242168759909E+00  8.718145821526E+00  9.226836261591E+00  9.770048809298E+00
  1.034959156514E+01  1.096724535465E+01  1.140104059809E+01  1.185302751680E+01
  1.232366680652E+01  1.281338604493E+01  1.332257173971E+01  1.385156043187E+01
  1.440062879260E+01  1.496998265650E+01  1.555974494105E+01  1.616994241247E+01
  1.680049127136E+01  1.745118154919E+01  1.812166032880E+01  1.881141382943E+01
  1.951974842995E+01  2.024577074371E+01  2.098836690462E+01  2.174618127800E+01
  2.251759487106E+01  2.330070378642E+01  2.409329813846E+01  2.489284193440E+01
  2.569645451042E+01  2.650089420435E+01  2.730254503938E+01  2.809740728416E+01
  2.888109283927E+01  2.964882647375E+01  3.039545399215E+01  3.075914245500E+01
  3.111545844520E+01  3.146365982267E+01  3.180298549792E+01  3.213265680046E+01
  3.245187902991E+01  3.275984319616E+01  3.305572795393E+01  3.333870173653E+01
  3.360792509187E+01  3.386255322308E+01  3.410173873445E+01  3.432463458162E+01
  3.453039722362E+01  3.471818997202E+01  3.488718653078E+01  3.503657471783E+01
  3.516556035732E+01  3.527337132892E+01  3.535926175795E+01  3.542251632741E+01
  3.546245469045E+01  3.547843595879E+01  3.546986324004E+01  3.543618819395E+01
  3.537691557520E+01  3.529160772753E+01  3.517988899181E+01  3.504144998841E+01
  3.487605173238E+01  3.468352953830E+01  3.446379667056E+01  3.421684769395E+01
  3.394276147936E+01  3.364170381934E+01  3.331392960948E+01  3.295978455279E+01
  3.257970634652E+01  3.217422531364E+01  3.174396444481E+01  3.128963882095E+01
  3.081205439129E+01  3.031210608784E+01  2.979077526306E+01  2.924912644477E+01
  2.868830340966E+01  2.810952458455E+01  2.751407779295E+01  2.690331437274E+01
  2.627864269930E+01  2.564152115721E+01  2.499345061127E+01  2.433596643619E+01
  2.367063017107E+01  2.299902087162E+01  2.232272623906E+01  2.164333360906E+01
  2.096242088788E+01  2.028154752537E+01  1.960224561533E+01  1.892601121352E+01
  1.825429596185E+01  1.758849910396E+01  1.692995997309E+01  1.627995102698E+01
  1.563967149782E+01  1.501024171701E+01  1.439269816545E+01  1.378798929097E+01
  1.319697212370E+01  1.262040971068E+01  1.205896938003E+01  1.151322183546E+01
  1.098364107186E+01  1.047060509375E+01  9.974397410173E+00  9.495209271791E+00
  9.033142609950E+00  8.588213631444E+00  8.160357018601E+00  7.749430680629E+00
  7.355220999661E+00  6.977449861210E+00  6.615787656686E+00  6.269869908635E+00
  5.939303753585E+00  5.623671931400E+00  5.322538151231E+00  5.035451891609E+00
  4.761952955107E+00  4.501575748486E+00  4.253853257431E+00  4.018320686240E+00
  3.794518733884E+00  3.581996479149E+00  3.380313849291E+00  3.189043648954E+00
  3.007773129198E+00  2.836105080436E+00  2.673657429201E+00  2.520058405850E+00
  2.374939264818E+00  2.237935435905E+00  2.108687451642E+00  1.986841849461E+00
  1.872051980715E+00  1.763978729379E+00  1.662291143579E+00  1.566666983317E+00
  1.476793188004E+00  1.392366267562E+00  1.313092621037E+00  1.238688786725E+00
  1.168881627963E+00  1.103408458731E+00  1.042017113280E+00  9.844659639709E-01
  9.305238915199E-01  8.799702117637E-01  8.325945630165E-01  7.881967579841E-01
  7.465866040953E-01  7.075836959782E-01  6.710171836571E-01  6.367255198843E-01
  6.045561898329E-01  5.743654261876E-01  5.460179124646E-01  5.193864771815E-01
  4.943517812861E-01  4.708020010401E-01  4.486325083499E-01  4.277455503361E-01
  4.080499297485E-01  3.894606876592E-01  3.718987897075E-01  3.552908170277E-01
  3.395686628566E-01  3.246692357033E-01  3.105341698535E-01  2.971095438824E-01
  2.843456077570E-01  2.721965190235E-01  2.606200884879E-01  2.495775357230E-01
  2.390332546518E-01  2.289545893879E-01  2.193116204386E-01  2.100769613119E-01
  2.012255655036E-01  1.927345437838E-01  1.845829916496E-01  1.767518267636E-01
  1.692236361569E-01  1.619825329395E-01  1.550140222327E-01  1.483048760122E-01
  1.418430165328E-01  1.356174079910E-01  1.296179560706E-01  1.238354150109E-01
  1.182613018340E-01  1.128878173670E-01  1.077077736969E-01  1.027145277025E-01
  9.790192030995E-02  9.326422113097E-02  8.879607814758E-02  8.449247211966E-02
  8.034867540109E-02  7.636021486189E-02  7.252283862517E-02  6.883248634005E-02
  6.528526272348E-02  6.187741411670E-02  5.860530781415E-02  5.546541393547E-02
  5.245428962369E-02  4.956856536507E-02  4.680493323911E-02  4.416013691948E-02
  4.163096325932E-02  3.921423530692E-02  3.690680661039E-02  3.470555668191E-02
  3.260738750452E-02  3.060922097553E-02  2.870799718542E-02  2.690067348383E-02
  2.518422418383E-02  2.355564091190E-02  2.201193350678E-02  2.055013141931E-02
  1.916728556290E-02  1.786047056587E-02  1.662678737836E-02  1.546336618633E-02
  1.436736958373E-02  1.333599595279E-02  1.236648300006E-02  1.145611139435E-02
  1.060220845137E-02  9.802151809610E-03  9.053373042121E-03  8.353361151112E-03
  7.699665894545E-03  7.089900898262E-03  6.521746511962E-03  5.992952373219E-03
  5.501339650142E-03  5.044802940089E-03  4.621311808825E-03  4.228911961374E-03
  3.865726042437E-03  3.529954070404E-03  3.219873514546E-03  2.933839029877E-03
  2.670281868333E-03  2.427708988289E-03  2.204701887069E-03  1.999915182985E-03
  1.812074974631E-03  1.639977005696E-03  1.482484663562E-03  1.338526839417E-03
  1.207095676669E-03  1.087244233156E-03  9.780840810812E-04  8.787828667809E-04
  7.885618505451E-04  7.066934446372E-04  6.324987656253E-04  5.653452150685E-04
  5.046441006007E-04  4.498483075333E-04  4.004500292949E-04  3.559785633553E-04
  3.159981777671E-04  2.801060521044E-04  2.479302953948E-04  2.191280426197E-04
  1.933836305031E-04  1.704068525992E-04  1.499312931211E-04  1.317127385079E-04
  1.155276653834E-04  1.011718033147E-04  8.845877059570E-05  7.721878116279E-05
  6.729742067408E-05  5.855448973409E-05  5.086291222364E-05  4.410770668065E-05
  3.818501867229E-05  3.300121209516E-05  2.847201733594E-05  2.452173421933E-05
  2.108248766161E-05  1.809353393855E-05  1.550061546590E-05  1.325536198085E-05
  1.131473600530E-05  9.640520467771E-06  8.198846361974E-06  6.959758327284E-06
  5.896816050539E-06  4.986729410679E-06  4.209025317601E-06  3.545744234562E-06
  2.981164419268E-06  2.501551971999E-06  2.094934839163E-06  1.750898986822E-06
  1.460405030155E-06  1.215623680627E-06  1.009788451878E-06  8.370641471001E-07
  6.924297340638E-07  5.715742980178E-07  4.708048467665E-07  3.869648253888E-07
  3.173622798138E-07  2.597066880412E-07  2.120535561646E-07  1.727559426251E-07
  1.404221802518E-07  1.138790107413E-07  9.213973205717E-08  7.437644344258E-08
  5.989611876079E-08  4.812005774097E-08  3.856620965554E-08  3.066418529049E-08
  2.446102990145E-08  1.946415112345E-08  1.544906240747E-08  1.223103004548E-08
  9.658424845833E-09  7.607112989473E-09  5.975736585871E-09  4.681753741390E-09
  3.658125116883E-09  2.850549164383E-09  2.215161666476E-09  1.716627021229E-09
  1.326559076837E-09  1.022218370799E-09  7.854405060868E-10  6.017572293131E-10
  4.596776811044E-10  3.501023747871E-10  2.658468244850E-10  2.012554769355E-10
  1.518897831136E-10  1.142769481263E-10  8.570818504720E-11  6.407722745465E-11
  4.775147679547E-11  3.546951864945E-11  2.625987531323E-11  1.937680467358E-11
  1.424973644108E-11  1.044358181915E-11  7.627683394980E-12  5.551607141209E-12
  4.026333839906E-12  2.909696518059E-12  2.095145060340E-12  1.503108680712E-12
  1.074379474272E-12  7.650625873828E-13  5.427362540155E-13  3.835427011004E-13
  2.699925623256E-13  1.893141091976E-13  1.322168874984E-13  9.196933519281E-14
  6.371335626401E-14  4.395700803079E-14  3.020053199379E-14  2.066180451927E-14
  1.407560850095E-14  9.547489802744E-15  6.447804576412E-15  4.335232922061E-15
  2.901802843553E-15  1.933548056524E-15  1.282478412061E-15  8.466995204314E-16
  5.563762252703E-16  3.638675784519E-16  2.368257677674E-16  1.533911461086E-16
  9.886259825607E-17  6.340134534295E-17  4.045513709485E-17  2.568214783203E-17
  1.621977621167E-17  1.019030764385E-17  6.368415604537E-18  3.958672539299E-18
  2.447450502732E-18  1.504860202325E-18  9.201692117346E-19  5.594993618239E-19
  3.382692767040E-19  2.033419232683E-19  1.215241814292E-19  7.220038553471E-20
  4.264092576434E-20  2.503184826661E-20  1.460517966109E-20  8.469089181127E-21
  4.880339703013E-21  2.794565314106E-21  1.589996742694E-21  8.987986292071E-22
  5.047526725002E-22  2.815858609655E-22  0.000000000000E+00  0.000000000000E+00
  0.000000000000E+00  0.000000000000E+00  0.000000000000E+00  0.000000000000E+00
  0.000000000000E+00  0.000000000000E+00  0.000000000000E+00  0.000000000000E+00
  0.000000000000E+00  0.000000000000E+00
</data>
</radfunc>
</valence-charge>
<pseudocore-charge matching-radius="0.438833197033"
 number-of-continuous-derivatives="4">
<annotation model-charge-form="Teter function with specified parameters" />
<radfunc>
<data npts="291">
  1.380442958789E+02  1.380257543621E+02  1.379685495750E+02  1.378738852231E+02
  1.377423234605E+02  1.375694294365E+02  1.373492357263E+02  1.370973115341E+02
  1.368143259072E+02  1.364846890440E+02  1.361136082770E+02  1.357108415737E+02
  1.352248710955E+02  1.347182553463E+02  1.342131083564E+02  1.336324259478E+02
  1.329653029510E+02  1.323344723991E+02  1.316270781191E+02  1.308343045743E+02
  1.299464491554E+02  1.291605861438E+02  1.283011747350E+02  1.273618949517E+02
  1.263360018157E+02  1.252163227078E+02  1.239952616604E+02  1.230081325378E+02
  1.219559587220E+02  1.208351042673E+02  1.196418302039E+02  1.183723088367E+02
  1.170226416577E+02  1.155888813578E+02  1.140670584539E+02  1.124532130804E+02
  1.107434325140E+02  1.089338950131E+02  1.076702913279E+02  1.063596679207E+02
  1.050010290143E+02  1.035934359556E+02  1.021360172230E+02  1.006279792053E+02
  9.906861776532E+01  9.745733059393E+01  9.579363035268E+01  9.407715859190E+01
  9.230770041959E+01  9.048519988261E+01  8.860977600512E+01  8.668173941139E+01
  8.470160943910E+01  8.267013162629E+01  8.058829542931E+01  7.845735200128E+01
  7.627883182966E+01  7.405456199886E+01  7.178668280891E+01  6.947766344445E+01
  6.713031635090E+01  6.474780993606E+01  6.233367917774E+01  5.989183368165E+01
  5.742656269997E+01  5.494253659179E+01  5.244480418320E+01  5.119247767021E+01
  4.993878546988E+01  4.868446102498E+01  4.743025910029E+01  4.617695506728E+01
  4.492534408627E+01  4.367624018239E+01  4.243047521179E+01  4.118889771491E+01
  3.995237165413E+01  3.872177503314E+01  3.749799839623E+01  3.628194320598E+01
  3.507452009837E+01  3.387664701520E+01  3.268924721412E+01  3.151324715742E+01
  3.034957428180E+01  2.919915465167E+01  2.806291050012E+01  2.694175766217E+01
  2.583660290636E+01  2.474834117147E+01  2.367785271686E+01  2.262600019545E+01
  2.159362566033E+01  2.058154751657E+01  1.959055743172E+01  1.862141721931E+01
  1.767485571122E+01  1.675156563601E+01  1.585220052151E+01  1.497737164120E+01
  1.412764502503E+01  1.330353855637E+01  1.250551917773E+01  1.173400022860E+01
  1.098933893956E+01  1.027183410713E+01  9.581723974236E+00  8.919184341011E+00
  8.284326930715E+00  7.677198034831E+00  7.097777460783E+00  6.545977804542E+00
  6.021644069046E+00  5.524553647516E+00  5.054416688695E+00  4.610876858513E+00
  4.193512509818E+00  3.801838268623E+00  3.435307041699E+00  3.093312446464E+00
  2.775191659858E+00  2.480228678397E+00  2.207657976816E+00  1.956668547782E+00
  1.726408300052E+00  1.515988787301E+00  1.324490234682E+00  1.150966825148E+00
  9.944522026432E-01  8.539651447223E-01  7.285153528959E-01  6.171093053065E-01
  5.187561131822E-01  4.324733200939E-01  3.572925814060E-01  2.922651605806E-01
  2.364671792436E-01  1.890045592270E-01  1.490175972210E-01  1.156851162315E-01
  8.822814276626E-02  6.591306454091E-02  4.805423047146E-02  3.401596272441E-02
  2.321395952246E-02  1.511607711675E-02  9.242489661342E-03  5.165236460830E-03
  2.507176975180E-03  9.403848030028E-04  1.840223506767E-04  1.747744828136E-06
  1.987144702133E-04  6.182319305424E-04  1.138161368648E-03  1.667126103850E-03
  2.140617645584E-03  2.517079769378E-03  2.774050999180E-03  2.904442102003E-03
  2.913019215066E-03  2.813155219993E-03  2.623902162431E-03  2.367426177344E-03
  2.066833882526E-03  1.744405971759E-03  1.420240250561E-03  1.111293119735E-03
  8.307960439494E-04  5.880123501816E-04  3.882902515025E-04  2.333606881834E-04
  1.218237343371E-04  4.976513696972E-05  1.144510965245E-05  4.729394663785E-09
  8.140973387350E-06  2.870923389660E-05  5.522159169562E-05  8.221963653289E-05
  1.055115532083E-04  1.222738694223E-04  1.310280259293E-04  1.315101798334E-04
  1.244588921100E-04  1.113492292689E-04  9.410315080631E-05  7.480487738006E-05
  5.544645611460E-05  3.772336058223E-05  2.289323997450E-05  1.170352979948E-05
  4.386270557714E-06  7.118508789674E-07  8.811332461465E-08  1.687803689706E-06
  4.585980479709E-06  7.889774299478E-06  1.084560543876E-05  1.291322364159E-05
  1.380114740227E-05  1.346356843322E-05  1.206384781697E-05  9.913731013968E-06
  7.399869687040E-06  4.909898509499E-06  2.769170672745E-06  1.196561481152E-06
  2.839829415875E-07  4.331511569765E-11  0.000000000000E+00  0.000000000000E+00
  0.000000000000E+00  0.000000000000E+00  0.000000000000E+00  0.000000000000E+00
  0.000000000000E+00  0.000000000000E+00  0.000000000000E+00  0.000000000000E+00
  0.000000000000E+00  0.000000000000E+00  0.000000000000E+00  0.000000000000E+00
  0.000000000000E+00  0.000000000000E+00  0.000000000000E+00  0.000000000000E+00
  0.000000000000E+00  0.000000000000E+00  0.000000000000E+00  0.000000000000E+00
  0.000000000000E+00  0.000000000000E+00  0.000000000000E+00  0.000000000000E+00
  0.000000000000E+00  0.000000000000E+00  0.000000000000E+00  0.000000000000E+00
  0.000000000000E+00  0.000000000000E+00  0.000000000000E+00  0.000000000000E+00
  0.000000000000E+00  0.000000000000E+00  0.000000000000E+00  0.000000000000E+00
  0.000000000000E+00  0.000000000000E+00  0.000000000000E+00  0.000000000000E+00
  0.000000000000E+00  0.000000000000E+00  0.000000000000E+00  0.000000000000E+00
  0.000000000000E+00  0.000000000000E+00  0.000000000000E+00  0.000000000000E+00
  0.000000000000E+00  0.000000000000E+00  0.000000000000E+00  0.000000000000E+00
  0.000000000000E+00  0.000000000000E+00  0.000000000000E+00  0.000000000000E+00
  0.000000000000E+00  0.000000000000E+00  0.000000000000E+00  0.000000000000E+00
  0.000000000000E+00  0.000000000000E+00  0.000000000000E+00  0.000000000000E+00
  0.000000000000E+00  0.000000000000E+00  0.000000000000E+00  0.000000000000E+00
  0.000000000000E+00  0.000000000000E+00  0.000000000000E+00  0.000000000000E+00
  0.000000000000E+00  0.000000000000E+00  0.000000000000E+00  0.000000000000E+00
  0.000000000000E+00  0.000000000000E+00  0.000000000000E+00
</data>
</radfunc>
</pseudocore-charge>
<semilocal-potentials set="lj">
<slps n="3" l="s" j="0.5" rc="1.11270348721" eref="-3.14669919278">
<radfunc>
<data npts="291">
  1.052250472173E+01  1.050872310945E+01  1.046624953644E+01  1.039610512062E+01
  1.029891304779E+01  1.017170119988E+01  1.001052778518E+01  9.827274327062E+00
  9.622870054801E+00  9.386673849392E+00  9.123203813511E+00  8.840099516782E+00
  8.502416078187E+00  8.154854318983E+00  7.812756617809E+00  7.424894968870E+00
  6.986261117514E+00  6.578185170876E+00  6.128136831230E+00  5.633022674706E+00
  5.089811554981E+00  4.618665049964E+00  4.113510646160E+00  3.573109087499E+00
  2.996394711006E+00  2.382518510307E+00  1.730893833668E+00  1.217223325420E+00
  6.821692584121E-01  1.258691283534E-01 -4.514042439609E-01 -1.049232452162E+00
 -1.667042108102E+00 -2.304096568436E+00 -2.959489041111E+00 -3.632137318011E+00
 -4.320780358767E+00 -5.023976918687E+00 -5.500066907820E+00 -5.981384575615E+00
 -6.467371820627E+00 -6.957437215978E+00 -7.450957079386E+00 -7.947276736572E+00
 -8.445711968493E+00 -8.945550630043E+00 -9.446054425260E+00 -9.946460821676E+00
 -1.044598508427E+01 -1.094382240769E+01 -1.143915012402E+01 -1.193112996239E+01
 -1.241891033627E+01 -1.290162863441E+01 -1.337841349198E+01 -1.384838701980E+01
 -1.431066697120E+01 -1.476436882873E+01 -1.520860779567E+01 -1.564250068108E+01
 -1.606516767102E+01 -1.647573398344E+01 -1.687333140879E+01 -1.725709974451E+01
 -1.762618813655E+01 -1.797975634774E+01 -1.831697597831E+01 -1.847919973396E+01
 -1.863703167072E+01 -1.879037210783E+01 -1.893912233621E+01 -1.908318466111E+01
 -1.922246244689E+01 -1.935686016448E+01 -1.948628344186E+01 -1.961063911803E+01
 -1.972983530092E+01 -1.984378142977E+01 -1.995238834239E+01 -2.005556834780E+01
 -2.015323530473E+01 -2.024530470640E+01 -2.033169377217E+01 -2.041232154634E+01
 -2.048710900473E+01 -2.055597916931E+01 -2.061885723142E+01 -2.067567068385E+01
 -2.072634946239E+01 -2.077082609693E+01 -2.080903587269E+01 -2.084091700185E+01
 -2.086641080589E+01 -2.088546190899E+01 -2.089801844278E+01 -2.090403226279E+01
 -2.090345917694E+01 -2.089625918622E+01 -2.088239673814E+01 -2.086184099311E+01
 -2.083456610405E+01 -2.080055150982E+01 -2.075978224250E+01 -2.071224924925E+01
 -2.065794972883E+01 -2.059688748335E+01 -2.052907328554E+01 -2.045452526212E+01
 -2.037326929334E+01 -2.028533942947E+01 -2.019077832434E+01 -2.008963768659E+01
 -1.998197874882E+01 -1.986787275540E+01 -1.974740146916E+01 -1.962065769785E+01
 -1.948774584086E+01 -1.934878245714E+01 -1.920389685541E+01 -1.905323170780E+01
 -1.889694368862E+01 -1.873520413996E+01 -1.856819976663E+01 -1.839613336294E+01
 -1.821922457457E+01 -1.803771069928E+01 -1.785184753040E+01 -1.766191024793E+01
 -1.746819436181E+01 -1.727101671278E+01 -1.707071653531E+01 -1.686765658729E+01
 -1.666222434957E+01 -1.645483329683E+01 -1.624592423843E+01 -1.603596672379E+01
 -1.582546050145E+01 -1.561493701324E+01 -1.540496089561E+01 -1.519613144779E+01
 -1.498908401125E+01 -1.478449118651E+01 -1.458306379150E+01 -1.438555144014E+01
 -1.419274259105E+01 -1.400546391646E+01 -1.382457836534E+01 -1.365098189517E+01
 -1.348560670960E+01 -1.332574756739E+01 -1.316749004192E+01 -1.301103689557E+01