<?xml version="1.0" encoding="UTF-8" ?>
<psml version="1.1" energy_unit="hartree" length_unit="bohr"
 uuid="8f493d40-539e-11e8-6d92-6abbeebca040"
 xmlns="http://esl.cecam.org/PSML/ns/1.1">
<provenance creator="ONCVPSP-3.3.0+psml-3.3.0-73 (fully-relativistic)"
 date="2018-05-09">
<annotation action="semilocal-pseudopotential-generation"
 action-cont="projectors-generation" />
<input-file name="oncvpsp-input">
<![CDATA[# atsym z nc nv iexc psfile
Mn 25 3 4 -116133 upf
# n l f
1 0 2.0
2 0 2.0
2 1 6.0
3 0 2.0
3 1 6.0
3 2 5.0
4 0 2.0
# lmax
2
# l rc ep ncon nbas qcut
0 1.4 0.0 4 7 8.2
1 1.2 0.0 4 7 10.4
2 1.6 0.0 4 7 9.8
# lloc lpopt rc5 dvloc0
4 5 1.2 0.0
# l nproj debl
0 2 1.0
1 2 1.0
2 2 1.0
# icmod fcfact
3 4 1.75
# epsh1 epsh2 depsh
-50.0 12.0 0.02
# rlmax drl
6.0 0.01
 0
]]>
</input-file>
</provenance>
<pseudo-atom-spec atomic-label="Mn" atomic-number="25" z-pseudo="15"
 flavor="Hamann&apos;s oncvpsp" relativity="dirac" spin-dft="no"
 core-corrections="yes">
<annotation pseudo-energy="-103.465497886" />
<exchange-correlation>
<annotation oncvpsp-xc-code="-116133" oncvpsp-xc-type="libxc-interface" />
<libxc-info number-of-functionals="2">
<functional name="Perdew, Burke &amp; Ernzerhof SOL (GGA)" type="exchange"
 id="116" />
<functional name="Perdew, Burke &amp; Ernzerhof SOL (GGA)" type="correlation"
 id="133" />
</libxc-info>
</exchange-correlation>
<valence-configuration total-valence-charge="15">
<shell n="3" l="s" occupation="2" />
<shell n="3" l="p" occupation="6" />
<shell n="3" l="d" occupation="5" />
<shell n="4" l="s" occupation="2" />
</valence-configuration>
</pseudo-atom-spec>
<grid npts="458">
<annotation type="sampled from oncvpsp log grid"
 recipe="r(i:1..N) = r1*exp(a*(i-1)) + r=0; resampled"
 recipe-cont="r1: scale; a: step" scale="0.200000000000E-04"
 step="0.119285708653E-01" delta="0.500000000000E-02" rmax="44.3769870573" />
<grid-data>
  0.000000000000E+00  5.007342349535E-03  1.012179466165E-02  1.518430601833E-02
  2.021749050673E-02  2.536045174936E-02  3.069341316587E-02  3.584196802331E-02
  4.086744488362E-02  4.604501413403E-02  5.126337829839E-02  5.639639233938E-02
  6.204337627505E-02  6.744643678951E-02  7.245061657011E-02  7.782608083168E-02
  8.360037697896E-02  8.873823744356E-02  9.419185737129E-02  9.998064251273E-02
  1.061251912451E-01  1.113116283280E-01  1.167515314288E-01  1.224572876681E-01
  1.284418895367E-01  1.347189644807E-01  1.413028059321E-01  1.464509939291E-01
  1.517867496073E-01  1.573169067565E-01  1.630485481470E-01  1.689890146010E-01
  1.751459143940E-01  1.815271329993E-01  1.881408431876E-01  1.949955154940E-01
  2.020999290667E-01  2.094631829112E-01  2.145204619994E-01  2.196998440339E-01
  2.250042770683E-01  2.304367803338E-01  2.360004459582E-01  2.416984407254E-01
  2.475340078783E-01  2.535104689645E-01  2.596312257271E-01  2.658997620411E-01
  2.723196458958E-01  2.788945314263E-01  2.856281609931E-01  2.925243673121E-01
  2.995870756365E-01  3.068203059907E-01  3.142281754585E-01  3.218149005268E-01
  3.295847994851E-01  3.375422948838E-01  3.456919160515E-01  3.540383016727E-01
  3.625862024283E-01  3.713404836997E-01  3.803061283381E-01  3.894882395007E-01
  3.988920435552E-01  4.085228930548E-01  4.183862697847E-01  4.234069050222E-01
  4.284877878824E-01  4.336296413370E-01  4.388331970331E-01  4.440991953975E-01
  4.494283857422E-01  4.548215263711E-01  4.602793846876E-01  4.658027373038E-01
  4.713923701515E-01  4.770490785933E-01  4.827736675364E-01  4.885669515469E-01
  4.944297549654E-01  5.003629120250E-01  5.063672669693E-01  5.124436741729E-01
  5.185929982630E-01  5.248161142422E-01  5.311139076131E-01  5.374872745044E-01
  5.439371217985E-01  5.504643672601E-01  5.570699396672E-01  5.637547789432E-01
  5.705198362905E-01  5.773660743260E-01  5.842944672179E-01  5.913060008245E-01
  5.984016728344E-01  6.055824929084E-01  6.128494828233E-01  6.202036766172E-01
  6.276461207366E-01  6.351778741855E-01  6.428000086757E-01  6.505136087798E-01
  6.583197720852E-01  6.662196093502E-01  6.742142446624E-01  6.823048155983E-01
  6.904924733855E-01  6.987783830661E-01  7.071637236629E-01  7.156496883469E-01
  7.242374846070E-01  7.329283344223E-01  7.417234744354E-01  7.506241561286E-01
  7.596316460022E-01  7.687472257542E-01  7.779721924632E-01  7.873078587728E-01
  7.967555530781E-01  8.063166197150E-01  8.159924191516E-01  8.257843281814E-01
  8.356937401196E-01  8.457220650010E-01  8.558707297810E-01  8.661411785384E-01
  8.765348726809E-01  8.870532911530E-01  8.976979306469E-01  9.084703058146E-01
  9.193719494844E-01  9.304044128782E-01  9.415692658328E-01  9.528680970228E-01
  9.643025141870E-01  9.758741443573E-01  9.875846340896E-01  9.994356496986E-01
  1.011428877495E+00  1.023566024025E+00  1.035848816313E+00  1.048279002109E+00
  1.060858350134E+00  1.073588650336E+00  1.086471714140E+00  1.099509374710E+00
  1.112703487206E+00  1.126055929053E+00  1.139568600201E+00  1.153243423404E+00
  1.167082344485E+00  1.181087332618E+00  1.195260380610E+00  1.209603505177E+00
  1.224118747239E+00  1.238808172206E+00  1.253673870273E+00  1.268717956716E+00
  1.283942572196E+00  1.299349883063E+00  1.314942081660E+00  1.330721386639E+00
  1.346690043279E+00  1.362850323798E+00  1.379204527684E+00  1.395754982016E+00
  1.412504041800E+00  1.429454090302E+00  1.446607539386E+00  1.463966829858E+00
  1.481534431817E+00  1.499312844998E+00  1.517304599138E+00  1.535512254328E+00
  1.553938401380E+00  1.572585662197E+00  1.591456690143E+00  1.610554170425E+00
  1.629880820470E+00  1.649439390315E+00  1.669232662999E+00  1.689263454955E+00
  1.709534616415E+00  1.730049031812E+00  1.750809620193E+00  1.771819335636E+00
  1.793081167663E+00  1.814598141675E+00  1.836373319375E+00  1.858409799208E+00
  1.880710716798E+00  1.903279245400E+00  1.926118596345E+00  1.949232019501E+00
  1.972622803735E+00  1.996294277380E+00  2.020249808708E+00  2.044492806413E+00
  2.069026720090E+00  2.093855040731E+00  2.118981301219E+00  2.144409076834E+00
  2.170141985756E+00  2.196183689585E+00  2.222537893860E+00  2.249208348587E+00
  2.276198848770E+00  2.303513234955E+00  2.331155393774E+00  2.359129258500E+00
  2.387438809602E+00  2.416088075317E+00  2.445081132221E+00  2.474422105807E+00
  2.504115171077E+00  2.534164553130E+00  2.564574527767E+00  2.595349422101E+00
  2.626493615166E+00  2.658011538548E+00  2.689907677010E+00  2.722186569135E+00
  2.754852807964E+00  2.787911041660E+00  2.821365974160E+00  2.855222365850E+00
  2.889485034240E+00  2.924158854651E+00  2.959248760906E+00  2.994759746037E+00
  3.030696862990E+00  3.067065225346E+00  3.103870008050E+00  3.141116448146E+00
  3.178809845524E+00  3.216955563670E+00  3.255559030434E+00  3.294625738800E+00
  3.334161247665E+00  3.374171182637E+00  3.414661236829E+00  3.455637171671E+00
  3.497104817731E+00  3.539070075544E+00  3.581538916450E+00  3.624517383448E+00
  3.668011592049E+00  3.712027731154E+00  3.756572063927E+00  3.801650928694E+00
  3.847270739839E+00  3.893437988717E+00  3.940159244582E+00  3.987441155516E+00
  4.035290449383E+00  4.083713934775E+00  4.132718501993E+00  4.182311124016E+00
  4.232498857505E+00  4.283288843795E+00  4.334688309920E+00  4.386704569639E+00
  4.439345024475E+00  4.492617164769E+00  4.546528570746E+00  4.601086913595E+00
  4.656299956558E+00  4.712175556037E+00  4.768721662709E+00  4.825946322662E+00
  4.883857678534E+00  4.942463970676E+00  5.001773538324E+00  5.061794820784E+00
  5.122536358633E+00  5.184006794937E+00  5.246214876476E+00  5.309169454994E+00
  5.372879488454E+00  5.437354042315E+00  5.502602290823E+00  5.568633518313E+00
  5.635457120533E+00  5.703082605979E+00  5.771519597251E+00  5.840777832418E+00
  5.910867166407E+00  5.981797572404E+00  6.053579143273E+00  6.126222092992E+00
  6.199736758108E+00  6.274133599205E+00  6.349423202396E+00  6.425616280824E+00
  6.502723676194E+00  6.580756360309E+00  6.659725436632E+00  6.739642141872E+00
  6.820517847574E+00  6.902364061745E+00  6.985192430486E+00  7.069014739652E+00
  7.153842916528E+00  7.239689031526E+00  7.326565299904E+00  7.414484083503E+00
  7.503457892505E+00  7.593499387215E+00  7.684621379862E+00  7.776836836420E+00
  7.870158878457E+00  7.964600784999E+00  8.060175994419E+00  8.156898106352E+00
  8.254780883628E+00  8.353838254232E+00  8.454084313282E+00  8.555533325042E+00
  8.658199724942E+00  8.762098121642E+00  8.867243299101E+00  8.973650218691E+00
  9.081334021315E+00  9.190310029571E+00  9.300593749925E+00  9.412200874925E+00
  9.525147285424E+00  9.639449052849E+00  9.755122441483E+00  9.872183910781E+00
  9.990650117710E+00  1.011053791912E+01  1.023186437415E+01  1.035464674664E+01
  1.047890250760E+01  1.060464933769E+01  1.073190512975E+01  1.086068799130E+01
  1.099101624720E+01  1.112290844216E+01  1.125638334347E+01  1.139145994359E+01
  1.152815746291E+01  1.166649535247E+01  1.180649329670E+01  1.194817121626E+01
  1.209154927085E+01  1.223664786211E+01  1.238348763645E+01  1.253208948809E+01
  1.268247456194E+01  1.283466425669E+01  1.298868022777E+01  1.314454439050E+01
  1.330227892319E+01  1.346190627027E+01  1.362344914551E+01  1.378693053526E+01
  1.395237370168E+01  1.411980218610E+01  1.428923981233E+01  1.446071069008E+01
  1.463423921836E+01  1.480985008898E+01  1.498756829005E+01  1.516741910953E+01
  1.534942813884E+01  1.553362127651E+01  1.572002473183E+01  1.590866502861E+01
  1.609956900895E+01  1.629276383706E+01  1.648827700311E+01  1.668613632714E+01
  1.688636996307E+01  1.708900640263E+01  1.729407447946E+01  1.750160337321E+01
  1.771162261369E+01  1.792416208505E+01  1.813925203007E+01  1.835692305443E+01
  1.857720613109E+01  1.880013260466E+01  1.902573419592E+01  1.925404300627E+01
  1.948509152234E+01  1.971891262061E+01  1.995553957206E+01  2.019500604692E+01
  2.043734611949E+01  2.068259427292E+01  2.093078540419E+01  2.118195482905E+01
  2.143613828699E+01  2.169337194644E+01  2.195369240979E+01  2.221713671871E+01
  2.248374235934E+01  2.275354726765E+01  2.302658983486E+01  2.330290891288E+01
  2.358254381983E+01  2.386553434567E+01  2.415192075782E+01  2.444174380691E+01
  2.473504473260E+01  2.503186526939E+01  2.533224765262E+01  2.563623462445E+01
  2.594386943995E+01  2.625519587322E+01  2.657025822370E+01  2.688910132239E+01
  2.721177053826E+01  2.753831178472E+01  2.786877152613E+01  2.820319678445E+01
  2.854163514586E+01  2.888413476761E+01  2.923074438482E+01  2.958151331744E+01
  2.993649147725E+01  3.029572937497E+01  3.065927812747E+01  3.102718946500E+01
  3.139951573858E+01  3.177630992745E+01  3.215762564658E+01  3.254351715434E+01
  3.293403936019E+01  3.332924783251E+01  3.372919880650E+01  3.413394919218E+01
  3.454355658248E+01  3.495807926147E+01  3.537757621261E+01  3.580210712716E+01
  3.623173241269E+01  3.666651320164E+01  3.710651136006E+01  3.755178949638E+01
  3.800241097034E+01  3.845843990198E+01  3.891994118081E+01  3.938698047498E+01
  3.985962424068E+01  4.033793973156E+01  4.082199500834E+01  4.131185894844E+01
  4.180760125582E+01  4.230929247089E+01  4.281700398054E+01  4.333080802831E+01
  4.385077772465E+01  4.437698705735E+01
</grid-data>
</grid>
<valence-charge total-charge="15" is-unscreening-charge="yes"
 rescaled-to-z-pseudo="no">
<radfunc>
<data npts="458">
  1.004650098663E+01  1.005120090606E+01  1.006570137020E+01  1.008969782255E+01
  1.012304865819E+01  1.016687940740E+01  1.022270476856E+01  1.028657948903E+01
  1.035833566576E+01  1.044192873415E+01  1.053604103448E+01  1.063820017021E+01
  1.076147744301E+01  1.089000709078E+01  1.101817837479E+01  1.116553128105E+01
  1.133483788073E+01  1.149494977956E+01  1.167450949692E+01  1.187575584718E+01
  1.210115090403E+01  1.230065856647E+01  1.251883674188E+01  1.275728142071E+01
  1.301769140422E+01  1.330186683759E+01  1.361170522015E+01  1.386211790396E+01
  1.412895072635E+01  1.441309334961E+01  1.471545200468E+01  1.503694346173E+01
  1.537848754284E+01  1.574099794527E+01  1.612537111643E+01  1.653247289418E+01
  1.696312259795E+01  1.741807422908E+01  1.773520993068E+01  1.806361585831E+01
  1.840343670641E+01  1.875478689330E+01  1.911774596303E+01  1.949235356284E+01
  1.987860397484E+01  2.027644018272E+01  2.068574745692E+01  2.110634644541E+01
  2.153798576254E+01  2.198033407427E+01  2.243297168606E+01  2.289538164964E+01
  2.336694041580E+01  2.384690807480E+01  2.433441824206E+01  2.482846766576E+01
  2.532790565518E+01  2.583142345357E+01  2.633754370782E+01  2.684461021883E+01
  2.735077819155E+01  2.785400524154E+01  2.835204345612E+01  2.884243285081E+01
  2.932249660643E+01  2.978933851686E+01  3.023984312084E+01  3.045793614378E+01
  3.067067903165E+01  3.087762278196E+01  3.107830601309E+01  3.127225543097E+01
  3.145898637710E+01  3.163800346259E+01  3.180880129280E+01  3.197086528688E+01
  3.212367259658E+01  3.226669312831E+01  3.239939067214E+01  3.252122414125E+01
  3.263164892469E+01  3.273011835598E+01  3.281608529946E+01  3.288900385564E+01
  3.294833118603E+01  3.299352945716E+01  3.302406790259E+01  3.303942500055E+01
  3.303909076397E+01  3.302256913820E+01  3.298938050070E+01  3.293906425533E+01
  3.287118151266E+01  3.278531784594E+01  3.268108611099E+01  3.255812931649E+01
  3.241612352936E+01  3.225478079854E+01  3.207385207831E+01  3.187313013091E+01
  3.165245238645E+01  3.141170373638E+01  3.115081923556E+01  3.086978668629E+01
  3.056864907662E+01  3.024750684421E+01  2.990651993625E+01  2.954590963532E+01
  2.916596012104E+01  2.876701973739E+01  2.834950193609E+01  2.791388586750E+01
  2.746071659166E+01  2.699060488434E+01  2.650422661483E+01  2.600232167549E+01
  2.548569244620E+01  2.495520178098E+01  2.441177050806E+01  2.385637444003E+01
  2.329004089562E+01  2.271384474052E+01  2.212890396063E+01  2.153637478749E+01
  2.093744640192E+01  2.033333524846E+01  1.972527899988E+01  1.911453021670E+01
  1.850234975351E+01  1.788999996846E+01  1.727873779799E+01  1.666980776269E+01
  1.606443497367E+01  1.546381821124E+01  1.486912314898E+01  1.428147579642E+01
  1.370195623251E+01  1.313159269947E+01  1.257135612318E+01  1.202215512105E+01
  1.148483155216E+01  1.096015665716E+01  1.044882782706E+01  9.951466030802E+00
  9.468613921709E+00  9.000734632797E+00  8.548211260348E+00  8.111347025075E+00
  7.690366090204E+00  7.285415006613E+00  6.896564746813E+00  6.523813282363E+00
  6.167088653452E+00  5.826252474988E+00  5.501103820752E+00  5.191383426051E+00
  4.896778681110E+00  4.616931058734E+00  4.351445382928E+00  4.099894572614E+00
  3.861824316710E+00  3.636757751168E+00  3.424200044740E+00  3.223642858241E+00
  3.034568646634E+00  2.856454777624E+00  2.688777444550E+00  2.531015354960E+00
  2.382653179401E+00  2.243184924575E+00  2.112117688874E+00  1.988975362461E+00
  1.873300414401E+00  1.764655474292E+00  1.662624544728E+00  1.566813934910E+00
  1.476852885137E+00  1.392393884869E+00  1.313112682836E+00  1.238707989925E+00
  1.168900108583E+00  1.103426278545E+00  1.042034279659E+00  9.844824852537E-01
  9.305397769122E-01  8.799854712463E-01  8.326092072577E-01  7.882107982578E-01
  7.466000522050E-01  7.075965641853E-01  6.710294846156E-01  6.367372665788E-01
  6.045673955224E-01  5.743761043534E-01  5.460280767625E-01  5.193961413981E-01
  4.943609592987E-01  4.708107067803E-01  4.486407557709E-01  4.277533533830E-01
  4.080573023311E-01  3.894676436279E-01  3.719053428318E-01  3.552969809765E-01
  3.395744511807E-01  3.246746618200E-01  3.105392470327E-01  2.971142852335E-01
  2.843500262182E-01  2.722006273512E-01  2.606238992478E-01  2.495810612815E-01
  2.390365071685E-01  2.289575808083E-01  2.193143624879E-01  2.100794654891E-01
  2.012278430756E-01  1.927366057803E-01  1.845848488583E-01  1.767534897256E-01
  1.692251151626E-01  1.619838380246E-01  1.550151631742E-01  1.483058623253E-01
  1.418438574680E-01  1.356181125309E-01  1.296185329275E-01  1.238358726249E-01
  1.182616483708E-01  1.128880607165E-01  1.077079214724E-01  1.027145872395E-01
  9.790189866604E-02  9.326412508586E-02  8.879591420347E-02  8.449224650214E-02
  8.034839406042E-02  7.635988347473E-02  7.252246259670E-02  6.883207080654E-02
  6.528481255531E-02  6.187693392173E-02  5.860480194157E-02  5.546488648006E-02
  5.245374443036E-02  4.956800603393E-02  4.680436313079E-02  4.415955916086E-02
  4.163038074953E-02  3.921365072373E-02  3.690622241680E-02  3.470497513310E-02
  3.260681065492E-02  3.060865068626E-02  2.870743513181E-02  2.690012116314E-02
  2.518368292315E-02  2.355511187615E-02  2.201141770677E-02  2.054962971991E-02
  1.916679869121E-02  1.785999911938E-02  1.662633183317E-02  1.546292690518E-02
  1.436694682409E-02  1.333558987472E-02  1.236609367398E-02  1.145573880860E-02
  1.060185251967E-02  9.801812378124E-03  9.053049896461E-03  8.353054022941E-03
  7.699374467950E-03  7.089624815812E-03  6.521485380456E-03  5.992705769103E-03
  5.501107124601E-03  5.044584023804E-03  4.621106016386E-03  4.228718795369E-03
  3.865544997207E-03  3.529784635472E-03  3.219715177738E-03  2.933691280134E-03
  2.670144198231E-03  2.427580896284E-03  2.204582879471E-03  1.999804775688E-03
  1.811972694602E-03  1.639882392252E-03  1.482397269438E-03  1.338446231643E-03
  1.207021437280E-03  1.087175959743E-03  9.780213871890E-04  8.787253821855E-04
  7.885092214059E-04  7.066453335456E-04  6.324548515579E-04  5.653051932559E-04
  5.046076823223E-04  4.498152198466E-04  4.004200147081E-04  3.559513794512E-04
  3.159735967847E-04  2.800838604865E-04  2.479102933050E-04  2.191100434377E-04
  1.933674603002E-04  1.703923496013E-04  1.499183071620E-04  1.317011304769E-04
  1.155173066726E-04  1.011625752663E-04  8.845056395484E-05  7.721149553792E-05
  6.729096400650E-05  5.854877777978E-05  5.085786804880E-05  4.410326017273E-05
  3.818110606785E-05  3.299777552570E-05  2.846900439270E-05  2.451909753771E-05
  2.108018452573E-05  1.809152590628E-05  1.549886801453E-05  1.325384417332E-05
  1.131342017680E-05  9.639381932511E-06  8.197863139631E-06  6.958910888558E-06
  5.896087081279E-06  4.986103593856E-06  4.208489132382E-06  3.545285771693E-06
  2.980773211940E-06  2.501218841350E-06  2.094651753549E-06  1.750658933997E-06
  1.460201901507E-06  1.215452166627E-06  1.009643947911E-06  8.369426688931E-07
  6.923278419307E-07  5.714890291988E-07  4.707336551538E-07  3.869055279813E-07
  3.173130092788E-07  2.596658507992E-07  2.120197954545E-07  1.727281060466E-07
  1.403992913148E-07  1.138602440064E-07  9.212439144842E-08  7.436394340456E-08
  5.988596792808E-08  4.811184470281E-08  3.855959120701E-08  3.082870818739E-08
  2.458722734504E-08  1.956067117788E-08  1.552266782730E-08  1.228699408857E-08
  9.700847372496E-09  7.639172171453E-09  5.999888755310E-09  4.699891594734E-09
  3.671702576590E-09  2.860679626554E-09  2.222695069665E-09  1.722210117169E-09
  1.330682398083E-09  1.021991206276E-09  7.852636275590E-10  6.016199073800E-10
  4.595713841756E-10  3.500203390378E-10  2.657837036700E-10  2.012070581117E-10
  1.518527565838E-10  1.142487218457E-10  8.568673537444E-11  6.406097951330E-11
  4.773920888141E-11  3.546028609989E-11  2.625295007511E-11  1.937162749330E-11
  1.424587916683E-11  1.044071777761E-11  7.625564193030E-12  5.550044561946E-12
  4.025185763872E-12  2.908856013460E-12  2.094531959218E-12  1.502663098150E-12
  1.074056840696E-12  7.648298547785E-13  5.425690094785E-13  3.834229790368E-13
  2.699071925308E-13  1.892534743814E-13  1.321739924247E-13  9.193911203923E-14
  6.369214832985E-14  4.394218755508E-14  3.019021840515E-14  2.065465758513E-14
  1.407067710101E-14  9.544101836853E-15  6.445487161472E-15  4.333654795318E-15
  2.900732975269E-15  1.932826042099E-15  1.281993386031E-15  8.463752076799E-16
  5.561603918409E-16  3.637246216866E-16  2.367315359999E-16  1.533293342801E-16
  9.882225209894E-17  6.337514159084E-17  4.043820426317E-17  2.567126168320E-17
  1.621281361953E-17  1.018587775554E-17  6.365612027279E-18  3.956907710126E-18
  2.446345571256E-18  1.504172211995E-18  9.197432063486E-19  5.592370579421E-19
  3.381086854200E-19  2.032441686583E-19  1.214650224615E-19  7.216479441377E-20
  4.261964095364E-20  2.501919583792E-20  1.459770446586E-20  8.464699996152E-21
  4.877778607915E-21  2.793080352003E-21  1.589141243069E-21  8.983089568833E-22
  5.044742280817E-22  2.814285769318E-22  0.000000000000E+00  0.000000000000E+00
  0.000000000000E+00  0.000000000000E+00  0.000000000000E+00  0.000000000000E+00
  0.000000000000E+00  0.000000000000E+00  0.000000000000E+00  0.000000000000E+00
  0.000000000000E+00  0.000000000000E+00
</data>
</radfunc>
</valence-charge>
<pseudocore-charge matching-radius="0.444099195397"
 number-of-continuous-derivatives="4">
<annotation model-charge-form="Teter function with specified parameters" />
<radfunc>
<data npts="291">
  1.279017674414E+02  1.278849931973E+02  1.278332405341E+02  1.277475974943E+02
  1.276285711327E+02  1.274721468921E+02  1.272729224202E+02  1.270449805361E+02
  1.267889231258E+02  1.264906389448E+02  1.261548336627E+02  1.257903316640E+02
  1.253504988077E+02  1.248919435319E+02  1.244346797288E+02  1.239089935357E+02
  1.233049911428E+02  1.227337856892E+02  1.220931815202E+02  1.213751687885E+02
  1.205709263121E+02  1.198589697112E+02  1.190802716939E+02  1.182290740798E+02
  1.172992263547E+02  1.162841818538E+02  1.151769999834E+02  1.142817561654E+02
  1.133273465446E+02  1.123104365634E+02  1.112275924646E+02  1.100752935176E+02
  1.088499474506E+02  1.075479095273E+02  1.061655057367E+02  1.046990605963E+02
  1.031449300899E+02  1.014995402750E+02  1.003501997066E+02  9.915777254461E+01
  9.792131296964E+01  9.663992371567E+01  9.531276499145E+01  9.393906410819E+01
  9.251812582875E+01  9.104934344761E+01  8.953221060341E+01  8.796633381728E+01
  8.635144573980E+01  8.468741907749E+01  8.297428115570E+01  8.121222905901E+01
  7.940164527206E+01  7.754311372356E+01  7.563743611354E+01  7.368564837900E+01
  7.168903712604E+01  6.964915582694E+01  6.756784054932E+01  6.544722495149E+01
  6.328975424315E+01  6.109819777600E+01  5.887565989275E+01  5.662558862902E+01
  5.435178182968E+01  5.205839021194E+01  4.974991688278E+01  4.859152712858E+01
  4.743121280044E+01  4.626963312611E+01  4.510746766012E+01  4.394541571242E+01
  4.278419568559E+01  4.162454431716E+01  4.046721582339E+01  3.931298094144E+01
  3.816262586697E+01  3.701695108444E+01  3.587677008797E+01  3.474290799090E+01
  3.361620002264E+01  3.249748991202E+01  3.138762815691E+01  3.028747018044E+01
  2.919787437494E+01  2.811970003555E+01  2.705380518596E+01  2.600104430002E+01
  2.496226592361E+01  2.393831020226E+01  2.293000632093E+01  2.193816986366E+01
  2.096360010170E+01  2.000707721995E+01  1.906935949281E+01  1.815118042165E+01
  1.725324584727E+01  1.637623105208E+01  1.552077786781E+01  1.468749180563E+01
  1.387693922692E+01  1.308964457372E+01  1.232608767896E+01  1.158670117747E+01
  1.087186803946E+01  1.018191924869E+01  9.517131648225E+00  8.877725976556E+00
  8.263865117258E+00  7.675652584947E+00  7.113131269931E+00  6.576282463243E+00
  6.065025182692E+00  5.579215819313E+00  5.118648121915E+00  4.683053535483E+00
  4.272101906879E+00  3.885402568633E+00  3.522505808639E+00  3.182904730250E+00
  2.866037503628E+00  2.571290005315E+00  2.297998838748E+00  2.045454724100E+00
  1.812906241180E+00  1.599563904442E+00  1.404604544378E+00  1.227175964758E+00
  1.066401840550E+00  9.213868167762E-01  7.912217643463E-01  6.749891449716E-01
  5.717684338251E-01  4.806415457050E-01  4.006982082023E-01  3.310412238661E-01
  2.707915626776E-01  2.190932263774E-01  1.751178274024E-01  1.380688274229E-01
  1.071853837817E-01  8.174575650535E-02  6.107023400410E-02  4.452354203554E-02
  3.151670792313E-02  2.150836029356E-02  1.400545359518E-02  8.563416226054E-03
  4.785731046590E-03  2.322967163344E-03  8.712919111449E-04  1.705016766567E-04
  1.619332773821E-06  1.841143221068E-04  5.728085764180E-04  1.054537239345E-03
  1.544637348992E-03  1.983340047070E-03  2.332142369552E-03  2.570233152398E-03
  2.691044029830E-03  2.698990956673E-03  2.606464268828E-03  2.431116201009E-03
  2.193484275763E-03  1.914977398375E-03  1.616239233231E-03  1.315890939799E-03
  1.029643081262E-03  7.697549668955E-04  5.448093192602E-04  3.597614021731E-04
  2.162149785324E-04  1.128729792043E-04  4.610874310206E-05  1.060420312036E-05
  4.381911853480E-09  7.542831656358E-06  2.659988037812E-05  5.116429573438E-05
  7.617871324552E-05  9.775930294615E-05  1.132900415148E-04  1.214010038880E-04
  1.218477324987E-04  1.153145240323E-04  1.031680674384E-04  8.718911008450E-05
  6.930873868583E-05  5.137263869009E-05  3.495171214119E-05  2.121120497268E-05
  1.084363636414E-05  4.063998104633E-06  6.595490599221E-07  8.163937438779E-08
  1.563795690600E-06  4.249034739695E-06  7.310088918861E-06  1.004874627928E-05
  1.196445037159E-05  1.278713571053E-05  1.247435968080E-05  1.117748073624E-05
  9.185339463331E-06  6.856179067609E-06  4.549153540348E-06  2.565711398183E-06
  1.108646520431E-06  2.631178631536E-07  4.013262423742E-11  0.000000000000E+00
  0.000000000000E+00  0.000000000000E+00  0.000000000000E+00  0.000000000000E+00
  0.000000000000E+00  0.000000000000E+00  0.000000000000E+00  0.000000000000E+00
  0.000000000000E+00  0.000000000000E+00  0.000000000000E+00  0.000000000000E+00
  0.000000000000E+00  0.000000000000E+00  0.000000000000E+00  0.000000000000E+00
  0.000000000000E+00  0.000000000000E+00  0.000000000000E+00  0.000000000000E+00
  0.000000000000E+00  0.000000000000E+00  0.000000000000E+00  0.000000000000E+00
  0.000000000000E+00  0.000000000000E+00  0.000000000000E+00  0.000000000000E+00
  0.000000000000E+00  0.000000000000E+00  0.000000000000E+00  0.000000000000E+00
  0.000000000000E+00  0.000000000000E+00  0.000000000000E+00  0.000000000000E+00
  0.000000000000E+00  0.000000000000E+00  0.000000000000E+00  0.000000000000E+00
  0.000000000000E+00  0.000000000000E+00  0.000000000000E+00  0.000000000000E+00
  0.000000000000E+00  0.000000000000E+00  0.000000000000E+00  0.000000000000E+00
  0.000000000000E+00  0.000000000000E+00  0.000000000000E+00  0.000000000000E+00
  0.000000000000E+00  0.000000000000E+00  0.000000000000E+00  0.000000000000E+00
  0.000000000000E+00  0.000000000000E+00  0.000000000000E+00  0.000000000000E+00
  0.000000000000E+00  0.000000000000E+00  0.000000000000E+00  0.000000000000E+00
  0.000000000000E+00  0.000000000000E+00  0.000000000000E+00  0.000000000000E+00
  0.000000000000E+00  0.000000000000E+00  0.000000000000E+00  0.000000000000E+00
  0.000000000000E+00  0.000000000000E+00  0.000000000000E+00  0.000000000000E+00
  0.000000000000E+00  0.000000000000E+00  0.000000000000E+00
</data>
</radfunc>
</pseudocore-charge>
<semilocal-potentials set="lj">
<slps n="3" l="s" j="0.5" rc="1.41250404180" eref="-3.14669919278">
<radfunc>
<data npts="291">
 -1.849557354830E+01 -1.849583084026E+01 -1.849662444759E+01 -1.849793747838E+01
 -1.849976179055E+01 -1.850215835868E+01 -1.850520911825E+01 -1.850869749652E+01
 -1.851261341825E+01 -1.851717145700E+01 -1.852229810538E+01 -1.852785713206E+01
 -1.853455703314E+01 -1.854153273669E+01 -1.854847915769E+01 -1.855645299530E+01
 -1.856559874032E+01 -1.857423192635E+01 -1.858389532685E+01 -1.859470264084E+01
 -1.860677756731E+01 -1.861743978647E+01 -1.862907188777E+01 -1.864175098088E+01
 -1.865555786791E+01 -1.867057662384E+01 -1.868689398737E+01 -1.870003745692E+01
 -1.871399887348E+01 -1.872881580728E+01 -1.874452531036E+01 -1.876116342750E+01
 -1.877876461469E+01 -1.879736105257E+01 -1.881698184102E+01 -1.883765205996E+01
 -1.885939168015E+01 -1.888221430676E+01 -1.889803429395E+01 -1.891433784582E+01
 -1.893112231591E+01 -1.894838269176E+01 -1.896611131129E+01 -1.898429755602E+01
 -1.900292752018E+01 -1.902198365468E+01 -1.904144438499E+01 -1.906128370215E+01
 -1.908147072625E+01 -1.910196924196E+01 -1.912273720581E+01 -1.914372622532E+01
 -1.916488101033E+01 -1.918613879728E+01 -1.920742874765E+01 -1.922867132225E+01
 -1.924977763363E+01 -1.927064877955E+01 -1.929117516110E+01 -1.931123578997E+01
 -1.933069759008E+01 -1.934941469984E+01 -1.936722778217E+01 -1.938396335066E+01
 -1.939943312103E+01 -1.941343339846E+01 -1.942574451227E+01 -1.943119349148E+01
 -1.943613031045E+01 -1.944052280408E+01 -1.944433772792E+01 -1.944754074972E+01
 -1.945009644274E+01 -1.945196828086E+01 -1.945311863580E+01 -1.945350877631E+01
 -1.945309886974E+01 -1.945184798587E+01 -1.944971410331E+01 -1.944665411850E+01
 -1.944262385741E+01 -1.943757809016E+01 -1.943147054855E+01 -1.942425394669E+01
 -1.941588000479E+01 -1.940629947620E+01 -1.939546217780E+01 -1.938331702377E+01
 -1.936981206284E+01 -1.935489451901E+01 -1.933851083582E+01 -1.932060672417E+01
 -1.930112721363E+01 -1.928001670725E+01 -1.925721903991E+01 -1.923267753994E+01
 -1.920633509415E+01 -1.917813421604E+01 -1.914801711704E+01 -1.911592578070E+01
 -1.908180203970E+01 -1.904558765531E+01 -1.900722439935E+01 -1.896665413822E+01
 -1.892381891890E+01 -1.887866105662E+01 -1.883112322406E+01 -1.878114854174E+01
 -1.872868066946E+01 -1.867366389859E+01 -1.861604324506E+01 -1.855576454287E+01
 -1.849277453816E+01 -1.842702098376E+01 -1.835845273432E+01 -1.828701984219E+01
 -1.821267365438E+01 -1.813536691095E+01 -1.805505384545E+01 -1.797169028803E+01
 -1.788523377230E+01 -1.779564364683E+01 -1.770288119277E+01 -1.760690974911E+01
 -1.750769484742E+01 -1.740520435810E+01 -1.729940865078E+01 -1.719028077133E+01
 -1.707779663889E+01 -1.696193526621E+01 -1.684267900728E+01 -1.672001383666E+01
 -1.659392966533E+01 -1.646442069829E+01 -1.633148584018E+01 -1.619512915511E+01
 -1.605536038827E+01 -1.591219555716E+01 -1.576565762139E+01 -1.561577724072E+01
 -1.546259363231E+01 -1.530615553880E+01 -1.514652232049E+01 -1.498376518571E+01
 -1.481796857496E+01 -1.464923171544E+01 -1.447767036386E+01 -1.430341875579E+01
 -1.412663178084E+01 -1.394748740199E+01 -1.376618933687E+01 -1.358297001611E+01