W     ONCVPSP-3.3.0  r_core=   1.46442   1.51778   1.36327   1.71007
74.0000     28.0000      180430    zatom,zion,pspd
8 -116133   3     4   600     0    pspcod,pspxc,lmax,lloc,mmax,r2well
5.99000000  5.00000000  0.00000000    rchrg fchrg qchrg
2     4     3     2    nproj
3     1           extension_switch
4     4     3    nprojso
0                         1.3057721686015D+00  1.5607732428490D+01
1  0.0000000000000D+00 -6.3076378842286D-10  2.1342783096401D-10
2  1.0000000000000D-02 -1.0615385661224D-02  5.7875957869377D-02
3  2.0000000000000D-02 -2.1303050428419D-02  1.1570716987548D-01
4  3.0000000000000D-02 -3.2133678425914D-02  1.7344844834172D-01
5  4.0000000000000D-02 -4.3174781336678D-02  2.3105372778485D-01
6  5.0000000000000D-02 -5.4489155825494D-02  2.8847564050738D-01
7  6.0000000000000D-02 -6.6133392885434D-02  3.4566510943259D-01
8  7.0000000000000D-02 -7.8156455670306D-02  4.0257096367772D-01
9  8.0000000000000D-02 -9.0598341744978D-02  4.5913958214734D-01
10  9.0000000000000D-02 -1.0348884490666D-01  5.1531457016535D-01
11  1.0000000000000D-01 -1.1684643080946D-01  5.7103647385271D-01
12  1.1000000000000D-01 -1.3067723957006D-01  6.2624253660157D-01
13  1.2000000000000D-01 -1.4497422735180D-01  6.8086650159701D-01
14  1.3000000000000D-01 -1.5971645762858D-01  7.3483846389993D-01
15  1.4000000000000D-01 -1.7486855142858D-01  7.8808477513124D-01
16  1.5000000000000D-01 -1.9038030436343D-01  8.4052800329233D-01
17  1.6000000000000D-01 -2.0618647667235D-01  8.9208694972528D-01
18  1.7000000000000D-01 -2.2220676086792D-01  9.4267672466149D-01
19  1.8000000000000D-01 -2.3834592987245D-01  9.9220888223490D-01
20  1.9000000000000D-01 -2.5449416679755D-01  1.0405916152504D+00
21  2.0000000000000D-01 -2.7052757575842D-01  1.0877300094047D+00
22  2.1000000000000D-01 -2.8630887134388D-01  1.1335263560605D+00
23  2.2000000000000D-01 -3.0168824259946D-01  1.1778805220812D+00
24  2.3000000000000D-01 -3.1650438563844D-01  1.2206903746460D+00
25  2.4000000000000D-01 -3.3058569729114D-01  1.2618522583945D+00
26  2.5000000000000D-01 -3.4375162055113D-01  1.3012615216910D+00
27  2.6000000000000D-01 -3.5581413099272D-01  1.3388130882704D+00
28  2.7000000000000D-01 -3.6657935183383D-01  1.3744020700210D+00
29  2.8000000000000D-01 -3.7584928391363D-01  1.4079244161881D+00
30  2.9000000000000D-01 -3.8342363556172D-01  1.4392775938518D+00
31  3.0000000000000D-01 -3.8910173616525D-01  1.4683612941354D+00
32  3.1000000000000D-01 -3.9268451620632D-01  1.4950781582576D+00
33  3.2000000000000D-01 -3.9397653565353D-01  1.5193345172421D+00
34  3.3000000000000D-01 -3.9278804185985D-01  1.5410411388545D+00
35  3.4000000000000D-01 -3.8893703755110D-01  1.5601139751438D+00
36  3.5000000000000D-01 -3.8225133909456D-01  1.5764749038360D+00
37  3.6000000000000D-01 -3.7257060501906D-01  1.5900524567509D+00
38  3.7000000000000D-01 -3.5974831472239D-01  1.6007825284025D+00
39  3.8000000000000D-01 -3.4365367745213D-01  1.6086090579927D+00
40  3.9000000000000D-01 -3.2417345198016D-01  1.6134846781160D+00
41  4.0000000000000D-01 -3.0121365791423D-01  1.6153713236694D+00
42  4.1000000000000D-01 -2.7470116029408D-01  1.6142407946921D+00
43  4.2000000000000D-01 -2.4458511000404D-01  1.6100752671551D+00
44  4.3000000000000D-01 -2.1083822359505D-01  1.6028677460715D+00
45  4.4000000000000D-01 -1.7345788733354D-01  1.5926224557024D+00
46  4.5000000000000D-01 -1.3246707168094D-01  1.5793551620983D+00
47  4.6000000000000D-01 -8.7915043939981D-02  1.5630934237176D+00
48  4.7000000000000D-01 -3.9877868473197D-02  1.5438767664213D+00
49  4.8000000000000D-01  1.1541314309457D-02  1.5217567797371D+00
50  4.9000000000000D-01  6.6212237096750D-02  1.4967971319135D+00
51  5.0000000000000D-01  1.2397768786731D-01  1.4690735019494D+00
52  5.1000000000000D-01  1.8465392797055D-01  1.4386734274668D+00
53  5.2000000000000D-01  2.4803134681761D-01  1.4056960680029D+00
54  5.3000000000000D-01  3.1387535174307D-01  1.3702518840143D+00
55  5.4000000000000D-01  3.8192748941547D-01  1.3324622326121D+00
56  5.5000000000000D-01  4.5190679300016D-01  1.2924588817720D+00
57  5.6000000000000D-01  5.2351134711967D-01  1.2503834454831D+00
58  5.7000000000000D-01  5.9642006054440D-01  1.2063867430053D+00
59  5.8000000000000D-01  6.7029463449958D-01  1.1606280860911D+00
60  5.9000000000000D-01  7.4478171250300D-01  1.1132744986902D+00
61  6.0000000000000D-01  8.1951519579215D-01  1.0644998742810D+00
62  6.1000000000000D-01  8.9411870665297D-01  1.0144840765658D+00
63  6.2000000000000D-01  9.6820818036721D-01  9.6341198980785D-01
64  6.3000000000000D-01  1.0413945650528D+00  9.1147252558819D-01
65  6.4000000000000D-01  1.1132866074015D+00  8.5885759319622D-01
66  6.5000000000000D-01  1.1834937012443D+00  8.0576104125083D-01
67  6.6000000000000D-01  1.2516287749918D+00  7.5237757846439D-01
68  6.7000000000000D-01  1.3173111933339D+00  6.9890168171068D-01
69  6.8000000000000D-01  1.3801696481416D+00  6.4552649973597D-01
70  6.9000000000000D-01  1.4398450132975D+00  5.9244276095775D-01
71  7.0000000000000D-01  1.4959931382008D+00  5.3983769382572D-01
72  7.1000000000000D-01  1.5482875549552D+00  4.8789396817425D-01
73  7.2000000000000D-01  1.5964220747387D+00  4.3678866587402D-01
74  7.3000000000000D-01  1.6401132495887D+00  3.8669228889350D-01
75  7.4000000000000D-01  1.6791026768006D+00  3.3776781260842D-01
76  7.5000000000000D-01  1.7131591243283D+00  2.9016979185366D-01
77  7.6000000000000D-01  1.7420804569811D+00  2.4404352679684D-01
78  7.7000000000000D-01  1.7656953448285D+00  1.9952429523187D-01
79  7.8000000000000D-01  1.7838647370296D+00  1.5673665734550D-01
80  7.9000000000000D-01  1.7964830862862D+00  1.1579383841031D-01
81  8.0000000000000D-01  1.8034793112702D+00  7.6797194198668D-02
82  8.1000000000000D-01  1.8048174866576D+00  3.9835763212681D-02
83  8.2000000000000D-01  1.8004972528104D+00  4.9859090813056D-03
84  8.3000000000000D-01  1.7905539396541D+00 -2.7688944300767D-02
85  8.4000000000000D-01  1.7750584018770D+00 -5.8138483121411D-02
86  8.5000000000000D-01  1.7541165652097D+00 -8.6325578537709D-02
87  8.6000000000000D-01  1.7278686861974D+00 -1.1222626598586D-01
88  8.7000000000000D-01  1.6964883305311D+00 -1.3582962963622D-01
89  8.8000000000000D-01  1.6601810776298D+00 -1.5713759354749D-01
90  8.9000000000000D-01  1.6191829617368D+00 -1.7616462189286D-01
91  9.0000000000000D-01  1.5737586622860D+00 -1.9293733142939D-01
92  9.1000000000000D-01  1.5241994586773D+00 -2.0749402015052D-01
93  9.2000000000000D-01  1.4708209668554D+00 -2.1988411679435D-01
94  9.3000000000000D-01  1.4139606771852D+00 -2.3016755656781D-01
95  9.4000000000000D-01  1.3539753150463D+00 -2.3841408908691D-01
96  9.5000000000000D-01  1.2912380472751D+00 -2.4470252510698D-01
97  9.6000000000000D-01  1.2261355591092D+00 -2.4911992913859D-01
98  9.7000000000000D-01  1.1590650275528D+00 -2.5176076548965D-01
99  9.8000000000000D-01  1.0904310181019D+00 -2.5272600564622D-01
100  9.9000000000000D-01  1.0206423325321D+00 -2.5212220520109D-01
101  1.0000000000000D+00  9.5010883593756D-01 -2.5006055875264D-01
102  1.0100000000000D+00  8.7923829142702D-01 -2.4665594132867D-01
103  1.0200000000000D+00  8.0843323077993D-01 -2.4202594492978D-01
104  1.0300000000000D+00  7.3808788905457D-01 -2.3628991875558D-01
105  1.0400000000000D+00  6.6858523045340D-01 -2.2956802154387D-01
106  1.0500000000000D+00  6.0029409184474D-01 -2.2198029424361D-01
107  1.0600000000000D+00  5.3356646915297D-01 -2.1364576095167D-01
108  1.0700000000000D+00  4.6873497032603D-01 -2.0468156565748D-01
109  1.0800000000000D+00  4.0611045693224D-01 -1.9520215190160D-01
110  1.0900000000000D+00  3.4597989453862D-01 -1.8531849194458D-01
111  1.1000000000000D+00  2.8860442972443D-01 -1.7513737141273D-01
112  1.1100000000000D+00  2.3421770940500D-01 -1.6476073478470D-01
113  1.1200000000000D+00  1.8302445529735D-01 -1.5428509628686D-01
114  1.1300000000000D+00  1.3519930435274D-01 -1.4380102020184D-01
115  1.1400000000000D+00  9.0885922381248D-02 -1.3339267357326D-01
116  1.1500000000000D+00  5.0196395802153D-02 -1.2313745363412D-01
117  1.1600000000000D+00  1.3210902919517D-02 -1.1310569127025D-01
118  1.1700000000000D+00 -2.0022335771677D-02 -1.0336043128575D-01
119  1.1800000000000D+00 -4.9486833078741D-02 -9.3957288979786D-02
120  1.1900000000000D+00 -7.5197343395844D-02 -8.4944381910836D-02
121  1.2000000000000D+00 -9.7199113815326D-02 -7.6362334833162D-02
122  1.2100000000000D+00 -1.1556689062637D-01 -6.8244355049500D-02
123  1.2200000000000D+00 -1.3040369718045D-01 -6.0616374410553D-02
124  1.2300000000000D+00 -1.4183940140596D-01 -5.3497253500123D-02
125  1.2400000000000D+00 -1.5002909250031D-01 -4.6899043178433D-02
126  1.2500000000000D+00 -1.5515129044620D-01 -4.0827297412688D-02
127  1.2600000000000D+00 -1.5740601279799D-01 -3.5281431066597D-02
128  1.2700000000000D+00 -1.5701272444379D-01 -3.0255115943588D-02
129  1.2800000000000D+00 -1.5420819883872D-01 -2.5736707508614D-02
130  1.2900000000000D+00 -1.4924431951742D-01 -2.1709694582961D-02
131  1.3000000000000D+00 -1.4238585136000D-01 -1.8153164111076D-02
132  1.3100000000000D+00 -1.3390821266775D-01 -1.5042272556237D-02
133  1.3200000000000D+00 -1.2409528917889D-01 -1.2348713275568D-02
134  1.3300000000000D+00 -1.1323724834752D-01 -1.0041187437612D-02
135  1.3400000000000D+00 -1.0162868108468D-01 -8.0858040859952D-03
136  1.3500000000000D+00 -8.9565932353041D-02 -6.4466624317816D-03
137  1.3600000000000D+00 -7.7347054202979D-02 -5.0858472445034D-03
138  1.3700000000000D+00 -6.5268806772421D-02 -3.9640819765803D-03
139  1.3800000000000D+00 -5.3616399330799D-02 -3.0429653969713D-03
140  1.3900000000000D+00 -4.2654156499848D-02 -2.2870864123130D-03
141  1.4000000000000D+00 -3.2615180499959D-02 -1.6664027508581D-03
142  1.4100000000000D+00 -2.3700737577605D-02 -1.1564882065600D-03
143  1.4200000000000D+00 -1.6084359155783D-02 -7.3907791252588D-04
144  1.4300000000000D+00 -9.8811904371868D-03 -4.0206698828656D-04
145  1.4400000000000D+00 -5.1653655267864D-03 -1.4133908267219D-04
146  1.4500000000000D+00 -2.1698346673408D-03  4.5289588610623D-05
147  1.4600000000000D+00 -7.5790255897680D-04  1.4277699902983D-04
148  1.4700000000000D+00 -2.1019997214742D-04  1.1296334591397D-04
149  1.4800000000000D+00 -1.6145159188679D-05  1.6369901825925D-05
150  1.4900000000000D+00  1.1710323124069D-05 -1.8207183387110D-05
151  1.5000000000000D+00 -2.3625879421287D-07  1.9804275506067D-07
152  1.5100000000000D+00 -3.9338112395383D-06  3.7655998114256D-06
153  1.5200000000000D+00  5.6016733190696D-07 -1.8013959067070D-07
154  1.5300000000000D+00  1.0794291127996D-06 -3.4712470267733D-07
155  1.5400000000000D+00  0.0000000000000D+00  0.0000000000000D+00
156  1.5500000000000D+00  0.0000000000000D+00  0.0000000000000D+00
157  1.5600000000000D+00  0.0000000000000D+00  0.0000000000000D+00
158  1.5700000000000D+00  0.0000000000000D+00  0.0000000000000D+00
159  1.5800000000000D+00  0.0000000000000D+00  0.0000000000000D+00
160  1.5900000000000D+00  0.0000000000000D+00  0.0000000000000D+00
161  1.6000000000000D+00  0.0000000000000D+00  0.0000000000000D+00
162  1.6100000000000D+00  0.0000000000000D+00  0.0000000000000D+00
163  1.6200000000000D+00  0.0000000000000D+00  0.0000000000000D+00
164  1.6300000000000D+00  0.0000000000000D+00  0.0000000000000D+00
165  1.6400000000000D+00  0.0000000000000D+00  0.0000000000000D+00
166  1.6500000000000D+00  0.0000000000000D+00  0.0000000000000D+00
167  1.6600000000000D+00  0.0000000000000D+00  0.0000000000000D+00
168  1.6700000000000D+00  0.0000000000000D+00  0.0000000000000D+00
169  1.6800000000000D+00  0.0000000000000D+00  0.0000000000000D+00
170  1.6900000000000D+00  0.0000000000000D+00  0.0000000000000D+00
171  1.7000000000000D+00  0.0000000000000D+00  0.0000000000000D+00
172  1.7100000000000D+00  0.0000000000000D+00  0.0000000000000D+00
173  1.7200000000000D+00  0.0000000000000D+00  0.0000000000000D+00
174  1.7300000000000D+00  0.0000000000000D+00  0.0000000000000D+00
175  1.7400000000000D+00  0.0000000000000D+00  0.0000000000000D+00
176  1.7500000000000D+00  0.0000000000000D+00  0.0000000000000D+00
177  1.7600000000000D+00  0.0000000000000D+00  0.0000000000000D+00
178  1.7700000000000D+00  0.0000000000000D+00  0.0000000000000D+00
179  1.7800000000000D+00  0.0000000000000D+00  0.0000000000000D+00
180  1.7900000000000D+00  0.0000000000000D+00  0.0000000000000D+00
181  1.8000000000000D+00  0.0000000000000D+00  0.0000000000000D+00
182  1.8100000000000D+00  0.0000000000000D+00  0.0000000000000D+00
183  1.8200000000000D+00  0.0000000000000D+00  0.0000000000000D+00
184  1.8300000000000D+00  0.0000000000000D+00  0.0000000000000D+00
185  1.8400000000000D+00  0.0000000000000D+00  0.0000000000000D+00
186  1.8500000000000D+00  0.0000000000000D+00  0.0000000000000D+00
187  1.8600000000000D+00  0.0000000000000D+00  0.0000000000000D+00
188  1.8700000000000D+00  0.0000000000000D+00  0.0000000000000D+00
189  1.8800000000000D+00  0.0000000000000D+00  0.0000000000000D+00
190  1.8900000000000D+00  0.0000000000000D+00  0.0000000000000D+00
191  1.9000000000000D+00  0.0000000000000D+00  0.0000000000000D+00
192  1.9100000000000D+00  0.0000000000000D+00  0.0000000000000D+00
193  1.9200000000000D+00  0.0000000000000D+00  0.0000000000000D+00
194  1.9300000000000D+00  0.0000000000000D+00  0.0000000000000D+00
195  1.9400000000000D+00  0.0000000000000D+00  0.0000000000000D+00
196  1.9500000000000D+00  0.0000000000000D+00  0.0000000000000D+00
197  1.9600000000000D+00  0.0000000000000D+00  0.0000000000000D+00
198  1.9700000000000D+00  0.0000000000000D+00  0.0000000000000D+00
199  1.9800000000000D+00  0.0000000000000D+00  0.0000000000000D+00
200  1.9900000000000D+00  0.0000000000000D+00  0.0000000000000D+00
201  2.0000000000000D+00  0.0000000000000D+00  0.0000000000000D+00
202  2.0100000000000D+00  0.0000000000000D+00  0.0000000000000D+00
203  2.0200000000000D+00  0.0000000000000D+00  0.0000000000000D+00
204  2.0300000000000D+00  0.0000000000000D+00  0.0000000000000D+00
205  2.0400000000000D+00  0.0000000000000D+00  0.0000000000000D+00
206  2.0500000000000D+00  0.0000000000000D+00  0.0000000000000D+00
207  2.0600000000000D+00  0.0000000000000D+00  0.0000000000000D+00
208  2.0700000000000D+00  0.0000000000000D+00  0.0000000000000D+00
209  2.0800000000000D+00  0.0000000000000D+00  0.0000000000000D+00
210  2.0900000000000D+00  0.0000000000000D+00  0.0000000000000D+00
211  2.1000000000000D+00  0.0000000000000D+00  0.0000000000000D+00
212  2.1100000000000D+00  0.0000000000000D+00  0.0000000000000D+00
213  2.1200000000000D+00  0.0000000000000D+00  0.0000000000000D+00
214  2.1300000000000D+00  0.0000000000000D+00  0.0000000000000D+00
215  2.1400000000000D+00  0.0000000000000D+00  0.0000000000000D+00
216  2.1500000000000D+00  0.0000000000000D+00  0.0000000000000D+00
217  2.1600000000000D+00  0.0000000000000D+00  0.0000000000000D+00
218  2.1700000000000D+00  0.0000000000000D+00  0.0000000000000D+00
219  2.1800000000000D+00  0.0000000000000D+00  0.0000000000000D+00
220  2.1900000000000D+00  0.0000000000000D+00  0.0000000000000D+00
221  2.2000000000000D+00  0.0000000000000D+00  0.0000000000000D+00
222  2.2100000000000D+00  0.0000000000000D+00  0.0000000000000D+00
223  2.2200000000000D+00  0.0000000000000D+00  0.0000000000000D+00
224  2.2300000000000D+00  0.0000000000000D+00  0.0000000000000D+00
225  2.2400000000000D+00  0.0000000000000D+00  0.0000000000000D+00
226  2.2500000000000D+00  0.0000000000000D+00  0.0000000000000D+00
227  2.2600000000000D+00  0.0000000000000D+00  0.0000000000000D+00
228  2.2700000000000D+00  0.0000000000000D+00  0.0000000000000D+00
229  2.2800000000000D+00  0.0000000000000D+00  0.0000000000000D+00
230  2.2900000000000D+00  0.0000000000000D+00  0.0000000000000D+00
231  2.3000000000000D+00  0.0000000000000D+00  0.0000000000000D+00
232  2.3100000000000D+00  0.0000000000000D+00  0.0000000000000D+00
233  2.3200000000000D+00  0.0000000000000D+00  0.0000000000000D+00
234  2.3300000000000D+00  0.0000000000000D+00  0.0000000000000D+00
235  2.3400000000000D+00  0.0000000000000D+00  0.0000000000000D+00
236  2.3500000000000D+00  0.0000000000000D+00  0.0000000000000D+00
237  2.3600000000000D+00  0.0000000000000D+00  0.0000000000000D+00
238  2.3700000000000D+00  0.0000000000000D+00  0.0000000000000D+00
239  2.3800000000000D+00  0.0000000000000D+00  0.0000000000000D+00
240  2.3900000000000D+00  0.0000000000000D+00  0.0000000000000D+00
241  2.4000000000000D+00  0.0000000000000D+00  0.0000000000000D+00
242  2.4100000000000D+00  0.0000000000000D+00  0.0000000000000D+00
243  2.4200000000000D+00  0.0000000000000D+00  0.0000000000000D+00
244  2.4300000000000D+00  0.0000000000000D+00  0.0000000000000D+00
245  2.4400000000000D+00  0.0000000000000D+00  0.0000000000000D+00
246  2.4500000000000D+00  0.0000000000000D+00  0.0000000000000D+00
247  2.4600000000000D+00  0.0000000000000D+00  0.0000000000000D+00
248  2.4700000000000D+00  0.0000000000000D+00  0.0000000000000D+00
249  2.4800000000000D+00  0.0000000000000D+00  0.0000000000000D+00
250  2.4900000000000D+00  0.0000000000000D+00  0.0000000000000D+00
251  2.5000000000000D+00  0.0000000000000D+00  0.0000000000000D+00
252  2.5100000000000D+00  0.0000000000000D+00  0.0000000000000D+00
253  2.5200000000000D+00  0.0000000000000D+00  0.0000000000000D+00
254  2.5300000000000D+00  0.0000000000000D+00  0.0000000000000D+00
255  2.5400000000000D+00  0.0000000000000D+00  0.0000000000000D+00
256  2.5500000000000D+00  0.0000000000000D+00  0.0000000000000D+00
257  2.5600000000000D+00  0.0000000000000D+00  0.0000000000000D+00
258  2.5700000000000D+00  0.0000000000000D+00  0.0000000000000D+00
259  2.5800000000000D+00  0.0000000000000D+00  0.0000000000000D+00
260  2.5900000000000D+00  0.0000000000000D+00  0.0000000000000D+00
261  2.6000000000000D+00  0.0000000000000D+00  0.0000000000000D+00
262  2.6100000000000D+00  0.0000000000000D+00  0.0000000000000D+00
263  2.6200000000000D+00  0.0000000000000D+00  0.0000000000000D+00
264  2.6300000000000D+00  0.0000000000000D+00  0.0000000000000D+00
265  2.6400000000000D+00  0.0000000000000D+00  0.0000000000000D+00
266  2.6500000000000D+00  0.0000000000000D+00  0.0000000000000D+00
267  2.6600000000000D+00  0.0000000000000D+00  0.0000000000000D+00
268  2.6700000000000D+00  0.0000000000000D+00  0.0000000000000D+00
269  2.6800000000000D+00  0.0000000000000D+00  0.0000000000000D+00
270  2.6900000000000D+00  0.0000000000000D+00  0.0000000000000D+00
271  2.7000000000000D+00  0.0000000000000D+00  0.0000000000000D+00
272  2.7100000000000D+00  0.0000000000000D+00  0.0000000000000D+00
273  2.7200000000000D+00  0.0000000000000D+00  0.0000000000000D+00
274  2.7300000000000D+00  0.0000000000000D+00  0.0000000000000D+00
275  2.7400000000000D+00  0.0000000000000D+00  0.0000000000000D+00
276  2.7500000000000D+00  0.0000000000000D+00  0.0000000000000D+00
277  2.7600000000000D+00  0.0000000000000D+00  0.0000000000000D+00
278  2.7700000000000D+00  0.0000000000000D+00  0.0000000000000D+00
279  2.7800000000000D+00  0.0000000000000D+00  0.0000000000000D+00
280  2.7900000000000D+00  0.0000000000000D+00  0.0000000000000D+00
281  2.8000000000000D+00  0.0000000000000D+00  0.0000000000000D+00
282  2.8100000000000D+00  0.0000000000000D+00  0.0000000000000D+00
283  2.8200000000000D+00  0.0000000000000D+00  0.0000000000000D+00
284  2.8300000000000D+00  0.0000000000000D+00  0.0000000000000D+00
285  2.8400000000000D+00  0.0000000000000D+00  0.0000000000000D+00
286  2.8500000000000D+00  0.0000000000000D+00  0.0000000000000D+00
287  2.8600000000000D+00  0.0000000000000D+00  0.0000000000000D+00
288  2.8700000000000D+00  0.0000000000000D+00  0.0000000000000D+00
289  2.8800000000000D+00  0.0000000000000D+00  0.0000000000000D+00
290  2.8900000000000D+00  0.0000000000000D+00  0.0000000000000D+00
291  2.9000000000000D+00  0.0000000000000D+00  0.0000000000000D+00
292  2.9100000000000D+00  0.0000000000000D+00  0.0000000000000D+00
293  2.9200000000000D+00  0.0000000000000D+00  0.0000000000000D+00
294  2.9300000000000D+00  0.0000000000000D+00  0.0000000000000D+00
295  2.9400000000000D+00  0.0000000000000D+00  0.0000000000000D+00
296  2.9500000000000D+00  0.0000000000000D+00  0.0000000000000D+00
297  2.9600000000000D+00  0.0000000000000D+00  0.0000000000000D+00
298  2.9700000000000D+00  0.0000000000000D+00  0.0000000000000D+00
299  2.9800000000000D+00  0.0000000000000D+00  0.0000000000000D+00
300  2.9900000000000D+00  0.0000000000000D+00  0.0000000000000D+00
301  3.0000000000000D+00  0.0000000000000D+00  0.0000000000000D+00
302  3.0100000000000D+00  0.0000000000000D+00  0.0000000000000D+00
303  3.0200000000000D+00  0.0000000000000D+00  0.0000000000000D+00
304  3.0300000000000D+00  0.0000000000000D+00  0.0000000000000D+00
305  3.0400000000000D+00  0.0000000000000D+00  0.0000000000000D+00
306  3.0500000000000D+00  0.0000000000000D+00  0.0000000000000D+00
307  3.0600000000000D+00  0.0000000000000D+00  0.0000000000000D+00
308  3.0700000000000D+00  0.0000000000000D+00  0.0000000000000D+00
309  3.0800000000000D+00  0.0000000000000D+00  0.0000000000000D+00
310  3.0900000000000D+00  0.0000000000000D+00  0.0000000000000D+00
311  3.1000000000000D+00  0.0000000000000D+00  0.0000000000000D+00
312  3.1100000000000D+00  0.0000000000000D+00  0.0000000000000D+00
313  3.1200000000000D+00  0.0000000000000D+00  0.0000000000000D+00
314  3.1300000000000D+00  0.0000000000000D+00  0.0000000000000D+00
315  3.1400000000000D+00  0.0000000000000D+00  0.0000000000000D+00
316  3.1500000000000D+00  0.0000000000000D+00  0.0000000000000D+00
317  3.1600000000000D+00  0.0000000000000D+00  0.0000000000000D+00
318  3.1700000000000D+00  0.0000000000000D+00  0.0000000000000D+00
319  3.1800000000000D+00  0.0000000000000D+00  0.0000000000000D+00
320  3.1900000000000D+00  0.0000000000000D+00  0.0000000000000D+00
321  3.2000000000000D+00  0.0000000000000D+00  0.0000000000000D+00
322  3.2100000000000D+00  0.0000000000000D+00  0.0000000000000D+00
323  3.2200000000000D+00  0.0000000000000D+00  0.0000000000000D+00
324  3.2300000000000D+00  0.0000000000000D+00  0.0000000000000D+00
325  3.2400000000000D+00  0.0000000000000D+00  0.0000000000000D+00
326  3.2500000000000D+00  0.0000000000000D+00  0.0000000000000D+00
327  3.2600000000000D+00  0.0000000000000D+00  0.0000000000000D+00
328  3.2700000000000D+00  0.0000000000000D+00  0.0000000000000D+00
329  3.2800000000000D+00  0.0000000000000D+00  0.0000000000000D+00
330  3.2900000000000D+00  0.0000000000000D+00  0.0000000000000D+00
331  3.3000000000000D+00  0.0000000000000D+00  0.0000000000000D+00
332  3.3100000000000D+00  0.0000000000000D+00  0.0000000000000D+00
333  3.3200000000000D+00  0.0000000000000D+00  0.0000000000000D+00
334  3.3300000000000D+00  0.0000000000000D+00  0.0000000000000D+00
335  3.3400000000000D+00  0.0000000000000D+00  0.0000000000000D+00
336  3.3500000000000D+00  0.0000000000000D+00  0.0000000000000D+00
337  3.3600000000000D+00  0.0000000000000D+00  0.0000000000000D+00
338  3.3700000000000D+00  0.0000000000000D+00  0.0000000000000D+00
339  3.3800000000000D+00  0.0000000000000D+00  0.0000000000000D+00
340  3.3900000000000D+00  0.0000000000000D+00  0.0000000000000D+00
341  3.4000000000000D+00  0.0000000000000D+00  0.0000000000000D+00
342  3.4100000000000D+00  0.0000000000000D+00  0.0000000000000D+00
343  3.4200000000000D+00  0.0000000000000D+00  0.0000000000000D+00
344  3.4300000000000D+00  0.0000000000000D+00  0.0000000000000D+00
345  3.4400000000000D+00  0.0000000000000D+00  0.0000000000000D+00
346  3.4500000000000D+00  0.0000000000000D+00  0.0000000000000D+00
347  3.4600000000000D+00  0.0000000000000D+00  0.0000000000000D+00
348  3.4700000000000D+00  0.0000000000000D+00  0.0000000000000D+00
349  3.4800000000000D+00  0.0000000000000D+00  0.0000000000000D+00
350  3.4900000000000D+00  0.0000000000000D+00  0.0000000000000D+00
351  3.5000000000000D+00  0.0000000000000D+00  0.0000000000000D+00
352  3.5100000000000D+00  0.0000000000000D+00  0.0000000000000D+00
353  3.5200000000000D+00  0.0000000000000D+00  0.0000000000000D+00
354  3.5300000000000D+00  0.0000000000000D+00  0.0000000000000D+00
355  3.5400000000000D+00  0.0000000000000D+00  0.0000000000000D+00
356  3.5500000000000D+00  0.0000000000000D+00  0.0000000000000D+00
357  3.5600000000000D+00  0.0000000000000D+00  0.0000000000000D+00
358  3.5700000000000D+00  0.0000000000000D+00  0.0000000000000D+00
359  3.5800000000000D+00  0.0000000000000D+00  0.0000000000000D+00
360  3.5900000000000D+00  0.0000000000000D+00  0.0000000000000D+00
361  3.6000000000000D+00  0.0000000000000D+00  0.0000000000000D+00
362  3.6100000000000D+00  0.0000000000000D+00  0.0000000000000D+00
363  3.6200000000000D+00  0.0000000000000D+00  0.0000000000000D+00
364  3.6300000000000D+00  0.0000000000000D+00  0.0000000000000D+00
365  3.6400000000000D+00  0.0000000000000D+00  0.0000000000000D+00
366  3.6500000000000D+00  0.0000000000000D+00  0.0000000000000D+00
367  3.6600000000000D+00  0.0000000000000D+00  0.0000000000000D+00
368  3.6700000000000D+00  0.0000000000000D+00  0.0000000000000D+00
369  3.6800000000000D+00  0.0000000000000D+00  0.0000000000000D+00
370  3.6900000000000D+00  0.0000000000000D+00  0.0000000000000D+00
371  3.7000000000000D+00  0.0000000000000D+00  0.0000000000000D+00
372  3.7100000000000D+00  0.0000000000000D+00  0.0000000000000D+00
373  3.7200000000000D+00  0.0000000000000D+00  0.0000000000000D+00
374  3.7300000000000D+00  0.0000000000000D+00  0.0000000000000D+00
375  3.7400000000000D+00  0.0000000000000D+00  0.0000000000000D+00
376  3.7500000000000D+00  0.0000000000000D+00  0.0000000000000D+00
377  3.7600000000000D+00  0.0000000000000D+00  0.0000000000000D+00
378  3.7700000000000D+00  0.0000000000000D+00  0.0000000000000D+00
379  3.7800000000000D+00  0.0000000000000D+00  0.0000000000000D+00
380  3.7900000000000D+00  0.0000000000000D+00  0.0000000000000D+00
381  3.8000000000000D+00  0.0000000000000D+00  0.0000000000000D+00
382  3.8100000000000D+00  0.0000000000000D+00  0.0000000000000D+00
383  3.8200000000000D+00  0.0000000000000D+00  0.0000000000000D+00
384  3.8300000000000D+00  0.0000000000000D+00  0.0000000000000D+00
385  3.8400000000000D+00  0.0000000000000D+00  0.0000000000000D+00
386  3.8500000000000D+00  0.0000000000000D+00  0.0000000000000D+00
387  3.8600000000000D+00  0.0000000000000D+00  0.0000000000000D+00
388  3.8700000000000D+00  0.0000000000000D+00  0.0000000000000D+00
389  3.8800000000000D+00  0.0000000000000D+00  0.0000000000000D+00
390  3.8900000000000D+00  0.0000000000000D+00  0.0000000000000D+00
391  3.9000000000000D+00  0.0000000000000D+00  0.0000000000000D+00
392  3.9100000000000D+00  0.0000000000000D+00  0.0000000000000D+00
393  3.9200000000000D+00  0.0000000000000D+00  0.0000000000000D+00
394  3.9300000000000D+00  0.0000000000000D+00  0.0000000000000D+00
395  3.9400000000000D+00  0.0000000000000D+00  0.0000000000000D+00
396  3.9500000000000D+00  0.0000000000000D+00  0.0000000000000D+00
397  3.9600000000000D+00  0.0000000000000D+00  0.0000000000000D+00
398  3.9700000000000D+00  0.0000000000000D+00  0.0000000000000D+00
399  3.9800000000000D+00  0.0000000000000D+00  0.0000000000000D+00
400  3.9900000000000D+00  0.0000000000000D+00  0.0000000000000D+00
401  4.0000000000000D+00  0.0000000000000D+00  0.0000000000000D+00
402  4.0100000000000D+00  0.0000000000000D+00  0.0000000000000D+00
403  4.0200000000000D+00  0.0000000000000D+00  0.0000000000000D+00
404  4.0300000000000D+00  0.0000000000000D+00  0.0000000000000D+00
405  4.0400000000000D+00  0.0000000000000D+00  0.0000000000000D+00
406  4.0500000000000D+00  0.0000000000000D+00  0.0000000000000D+00
407  4.0600000000000D+00  0.0000000000000D+00  0.0000000000000D+00
408  4.0700000000000D+00  0.0000000000000D+00  0.0000000000000D+00
409  4.0800000000000D+00  0.0000000000000D+00  0.0000000000000D+00
410  4.0900000000000D+00  0.0000000000000D+00  0.0000000000000D+00
411  4.1000000000000D+00  0.0000000000000D+00  0.0000000000000D+00
412  4.1100000000000D+00  0.0000000000000D+00  0.0000000000000D+00
413  4.1200000000000D+00  0.0000000000000D+00  0.0000000000000D+00
414  4.1300000000000D+00  0.0000000000000D+00  0.0000000000000D+00
415  4.1400000000000D+00  0.0000000000000D+00  0.0000000000000D+00
416  4.1500000000000D+00  0.0000000000000D+00  0.0000000000000D+00
417  4.1600000000000D+00  0.0000000000000D+00  0.0000000000000D+00
418  4.1700000000000D+00  0.0000000000000D+00  0.0000000000000D+00
419  4.1800000000000D+00  0.0000000000000D+00  0.0000000000000D+00
420  4.1900000000000D+00  0.0000000000000D+00  0.0000000000000D+00
421  4.2000000000000D+00  0.0000000000000D+00  0.0000000000000D+00
422  4.2100000000000D+00  0.0000000000000D+00  0.0000000000000D+00
423  4.2200000000000D+00  0.0000000000000D+00  0.0000000000000D+00
424  4.2300000000000D+00  0.0000000000000D+00  0.0000000000000D+00
425  4.2400000000000D+00  0.0000000000000D+00  0.0000000000000D+00
426  4.2500000000000D+00  0.0000000000000D+00  0.0000000000000D+00
427  4.2600000000000D+00  0.0000000000000D+00  0.0000000000000D+00
428  4.2700000000000D+00  0.0000000000000D+00  0.0000000000000D+00
429  4.2800000000000D+00  0.0000000000000D+00  0.0000000000000D+00
430  4.2900000000000D+00  0.0000000000000D+00  0.0000000000000D+00
431  4.3000000000000D+00  0.0000000000000D+00  0.0000000000000D+00
432  4.3100000000000D+00  0.0000000000000D+00  0.0000000000000D+00
433  4.3200000000000D+00  0.0000000000000D+00  0.0000000000000D+00
434  4.3300000000000D+00  0.0000000000000D+00  0.0000000000000D+00
435  4.3400000000000D+00  0.0000000000000D+00  0.0000000000000D+00
436  4.3500000000000D+00  0.0000000000000D+00  0.0000000000000D+00
437  4.3600000000000D+00  0.0000000000000D+00  0.0000000000000D+00
438  4.3700000000000D+00  0.0000000000000D+00  0.0000000000000D+00
439  4.3800000000000D+00  0.0000000000000D+00  0.0000000000000D+00
440  4.3900000000000D+00  0.0000000000000D+00  0.0000000000000D+00
441  4.4000000000000D+00  0.0000000000000D+00  0.0000000000000D+00
442  4.4100000000000D+00  0.0000000000000D+00  0.0000000000000D+00
443  4.4200000000000D+00  0.0000000000000D+00  0.0000000000000D+00