<?xml version="1.0" encoding="UTF-8" ?>
<psml version="1.1" energy_unit="hartree" length_unit="bohr"
 uuid="b2231830-539f-11e8-64da-e580bff72736"
 xmlns="http://esl.cecam.org/PSML/ns/1.1">
<provenance creator="ONCVPSP-3.3.0+psml-3.3.0-73 (fully-relativistic)"
 date="2018-05-09">
<annotation action="semilocal-pseudopotential-generation"
 action-cont="projectors-generation" />
<input-file name="oncvpsp-input">
<![CDATA[# atsym z nc nv iexc psfile
W 74 10 4 -116133 upf
# n l f
1 0 2.0
2 0 2.0
2 1 6.0
3 0 2.0
3 1 6.0
3 2 10.0
4 0 2.0
4 1 6.0
4 2 10.0
4 3 14.0
5 0 2.0
5 1 6.0
5 2 4.0
6 0 2.0
# lmax
3
# l rc ep ncon nbas qcut
0 1.6 0.0 4 8 7.4
1 1.6 0.0 4 8 8.0
2 1.6 0.0 4 9 7.4
3 2.0 0.15 4 8 5.5
# lloc lpopt rc5 dvloc0
4 5 1.25 0.0
# l nproj debl
0 2 1.0
1 2 1.0
2 2 1.0
3 2 2.8
# icmod fcfact rcfact
3 5.0 1.36
# epsh1 epsh2 depsh
-12.0 12.0 0.02
# rlmax drl
6.0 0.01
 0
]]>
</input-file>
</provenance>
<pseudo-atom-spec atomic-label="W" atomic-number="74" z-pseudo="14"
 flavor="Hamann&apos;s oncvpsp" relativity="dirac" spin-dft="no"
 core-corrections="yes">
<annotation pseudo-energy="-68.7453096605" />
<exchange-correlation>
<annotation oncvpsp-xc-code="-116133" oncvpsp-xc-type="libxc-interface" />
<libxc-info number-of-functionals="2">
<functional name="Perdew, Burke &amp; Ernzerhof SOL (GGA)" type="exchange"
 id="116" />
<functional name="Perdew, Burke &amp; Ernzerhof SOL (GGA)" type="correlation"
 id="133" />
</libxc-info>
</exchange-correlation>
<valence-configuration total-valence-charge="14">
<shell n="5" l="s" occupation="2" />
<shell n="5" l="p" occupation="6" />
<shell n="5" l="d" occupation="4" />
<shell n="6" l="s" occupation="2" />
</valence-configuration>
</pseudo-atom-spec>
<grid npts="458">
<annotation type="sampled from oncvpsp log grid"
 recipe="r(i:1..N) = r1*exp(a*(i-1)) + r=0; resampled"
 recipe-cont="r1: scale; a: step" scale="0.675675675676E-05"
 step="0.119285708653E-01" delta="0.500000000000E-02" rmax="44.3907762595" />
<grid-data>
  0.000000000000E+00  5.008898274364E-03  1.012493979345E-02  1.518902421755E-02
  2.022377266067E-02  2.536833196880E-02  3.070295048932E-02  3.585310515037E-02
  4.088014357042E-02  4.605932164004E-02  5.127930729975E-02  5.641391631537E-02
  6.206265493084E-02  6.746739433111E-02  7.247312905385E-02  7.785026362628E-02
  8.362635401292E-02  8.876581095806E-02  9.422112548187E-02  1.000117093648E-01
  1.061581673846E-01  1.113462160423E-01  1.167878094769E-01  1.224953386582E-01
  1.284818001142E-01  1.347608255254E-01  1.413467127651E-01  1.464965004517E-01
  1.518339141021E-01  1.573657896297E-01  1.630992120055E-01  1.690415243328E-01
  1.752003372510E-01  1.815835386839E-01  1.881993039416E-01  1.950561061912E-01
  2.021627273089E-01  2.095282691274E-01  2.145871196573E-01  2.197681110743E-01
  2.250741923480E-01  2.305083836481E-01  2.360737780629E-01  2.417735433604E-01
  2.476109237913E-01  2.535892419353E-01  2.597119005926E-01  2.659823847205E-01
  2.724042634172E-01  2.789811919532E-01  2.857169138517E-01  2.926152630197E-01
  2.996801659301E-01  3.069156438563E-01  3.143258151616E-01  3.219148976428E-01
  3.296872109315E-01  3.376471789522E-01  3.457993324409E-01  3.541483115233E-01
  3.626988683567E-01  3.714558698343E-01  3.804243003556E-01  3.896092646634E-01
  3.990159907494E-01  4.086498328301E-01  4.185162743939E-01  4.235384696867E-01
  4.286209313229E-01  4.337643824988E-01  4.389695550888E-01  4.442371897498E-01
  4.495680360268E-01  4.549628524592E-01  4.604224066887E-01  4.659474755689E-01
  4.715388452758E-01  4.771973114191E-01  4.829236791561E-01  4.887187633060E-01
  4.945833884656E-01  5.005183891272E-01  5.065246097968E-01  5.126029051143E-01
  5.187541399757E-01  5.249791896554E-01  5.312789399313E-01  5.376542872104E-01
  5.441061386570E-01  5.506354123208E-01  5.572430372687E-01  5.639299537159E-01
  5.706971131605E-01  5.775454785184E-01  5.844760242607E-01  5.914897365518E-01
  5.985876133904E-01  6.057706647511E-01  6.130399127281E-01  6.203963916808E-01
  6.278411483810E-01  6.353752421616E-01  6.429997450675E-01  6.507157420083E-01
  6.585243309124E-01  6.664266228834E-01  6.744237423580E-01  6.825168272663E-01
  6.907070291935E-01  6.989955135438E-01  7.073834597063E-01  7.158720612228E-01
  7.244625259575E-01  7.331560762690E-01  7.419539491842E-01  7.508573965744E-01
  7.598676853333E-01  7.689860975573E-01  7.782139307280E-01  7.875524978967E-01
  7.970031278715E-01  8.065671654059E-01  8.162459713908E-01  8.260409230475E-01
  8.359534141241E-01  8.459848550936E-01  8.561366733547E-01  8.664103134349E-01
  8.768072371962E-01  8.873289240425E-01  8.979768711310E-01  9.087525935846E-01
  9.196576247076E-01  9.306935162041E-01  9.418618383985E-01  9.531641804593E-01
  9.646021506248E-01  9.761773764323E-01  9.878915049495E-01  9.997462030089E-01
  1.011743157445E+00  1.023884075334E+00  1.036170684238E+00  1.048604732449E+00
  1.061187989239E+00  1.073922245109E+00  1.086809312051E+00  1.099851023795E+00
  1.113049236081E+00  1.126405826914E+00  1.139922696837E+00  1.153601769199E+00
  1.167444990429E+00  1.181454330314E+00  1.195631782278E+00  1.209979363666E+00
  1.224499116030E+00  1.239193105422E+00  1.254063422687E+00  1.269112183759E+00
  1.284341529964E+00  1.299753628324E+00  1.315350671864E+00  1.331134879926E+00
  1.347108498485E+00  1.363273800467E+00  1.379633086073E+00  1.396188683106E+00
  1.412942947303E+00  1.429898262670E+00  1.447057041823E+00  1.464421726324E+00
  1.481994787040E+00  1.499778724485E+00  1.517776069179E+00  1.535989382009E+00
  1.554421254593E+00  1.573074309648E+00  1.591951201364E+00  1.611054615780E+00
  1.630387271169E+00  1.649951918424E+00  1.669751341445E+00  1.689788357542E+00
  1.710065817832E+00  1.730586607646E+00  1.751353646938E+00  1.772369890701E+00
  1.793638329390E+00  1.815161989343E+00  1.836943933215E+00  1.858987260413E+00
  1.881295107538E+00  1.903870648829E+00  1.926717096615E+00  1.949837701774E+00
  1.973235754195E+00  1.996914583246E+00  2.020877558245E+00  2.045128088943E+00
  2.069669626011E+00  2.094505661523E+00  2.119639729461E+00  2.145075406215E+00
  2.170816311089E+00  2.196866106822E+00  2.223228500104E+00  2.249907242105E+00
  2.276906129011E+00  2.304229002559E+00  2.331879750590E+00  2.359862307597E+00
  2.388180655288E+00  2.416838823151E+00  2.445840889029E+00  2.475190979697E+00
  2.504893271454E+00  2.534951990711E+00  2.565371414600E+00  2.596155871575E+00
  2.627309742034E+00  2.658837458938E+00  2.690743508446E+00  2.723032430547E+00
  2.755708819713E+00  2.788777325550E+00  2.822242653457E+00  2.856109565298E+00
  2.890382880082E+00  2.925067474643E+00  2.960168284338E+00  2.995690303750E+00
  3.031638587395E+00  3.068018250444E+00  3.104834469450E+00  3.142092483083E+00
  3.179797592880E+00  3.217955163994E+00  3.256570625962E+00  3.295649473474E+00
  3.335197267156E+00  3.375219634362E+00  3.415722269974E+00  3.456710937214E+00
  3.498191468460E+00  3.540169766082E+00  3.582651803275E+00  3.625643624914E+00
  3.669151348413E+00  3.713181164594E+00  3.757739338569E+00  3.802832210632E+00
  3.848466197159E+00  3.894647791525E+00  3.941383565024E+00  3.988680167804E+00
  4.036544329817E+00  4.084982861775E+00  4.134002656117E+00  4.183610687990E+00
  4.233814016246E+00  4.284619784441E+00  4.336035221854E+00  4.388067644516E+00
  4.440724456251E+00  4.494013149726E+00  4.547941307522E+00  4.602516603213E+00
  4.657746802451E+00  4.713639764081E+00  4.770203441249E+00  4.827445882544E+00
  4.885375233135E+00  4.943999735933E+00  5.003327732764E+00  5.063367665557E+00
  5.124128077544E+00  5.185617614474E+00  5.247845025848E+00  5.310819166158E+00
  5.374548996152E+00  5.439043584106E+00  5.504312107115E+00  5.570363852400E+00
  5.637208218629E+00  5.704854717253E+00  5.773312973860E+00  5.842592729546E+00
  5.912703842301E+00  5.983656288408E+00  6.055460163869E+00  6.128125685836E+00
  6.201663194066E+00  6.276083152394E+00  6.351396150223E+00  6.427612904026E+00
  6.504744258874E+00  6.582801189981E+00  6.661794804260E+00  6.741736341912E+00
  6.822637178014E+00  6.904508824151E+00  6.987362930040E+00  7.071211285201E+00
  7.156065820623E+00  7.241938610471E+00  7.328841873796E+00  7.416787976282E+00
  7.505789431997E+00  7.595858905181E+00  7.687009212044E+00  7.779253322588E+00
  7.872604362459E+00  7.967075614809E+00  8.062680522186E+00  8.159432688453E+00
  8.257345880714E+00  8.356434031283E+00  8.456711239658E+00  8.558191774534E+00
  8.660890075828E+00  8.764820756738E+00  8.869998605819E+00  8.976438589089E+00
  9.084155852158E+00  9.193165722384E+00  9.303483711053E+00  9.415125515585E+00
  9.528107021772E+00  9.642444306033E+00  9.758153637706E+00  9.875251481358E+00
  9.993754499135E+00  1.011367955312E+01  1.023504370776E+01  1.035786423225E+01
  1.048215860304E+01  1.060794450628E+01  1.073523984035E+01  1.086406271844E+01
  1.099443147106E+01  1.112636464871E+01  1.125988102450E+01  1.139499959679E+01
  1.153173959195E+01  1.167012046706E+01  1.181016191266E+01  1.195188385561E+01
  1.209530646188E+01  1.224045013942E+01  1.238733554109E+01  1.253598356759E+01
  1.268641537040E+01  1.283865235484E+01  1.299271618310E+01  1.314862877730E+01
  1.330641232263E+01  1.346608927050E+01  1.362768234174E+01  1.379121452985E+01
  1.395670910420E+01  1.412418961345E+01  1.429367988882E+01  1.446520404748E+01
  1.463878649605E+01  1.481445193400E+01  1.499222535721E+01  1.517213206150E+01
  1.535419764624E+01  1.553844801799E+01  1.572490939421E+01  1.591360830694E+01
  1.610457160662E+01  1.629782646590E+01  1.649340038349E+01  1.669132118809E+01
  1.689161704235E+01  1.709431644686E+01  1.729944824422E+01  1.750704162315E+01
  1.771712612263E+01  1.792973163610E+01  1.814488841573E+01  1.836262707672E+01
  1.858297860164E+01  1.880597434486E+01  1.903164603700E+01  1.926002578944E+01
  1.949114609892E+01  1.972503985211E+01  1.996174033033E+01  2.020128121429E+01
  2.044369658887E+01  2.068902094793E+01  2.093728919931E+01  2.118853666970E+01
  2.144279910974E+01  2.170011269905E+01  2.196051405144E+01  2.222404022006E+01
  2.249072870270E+01  2.276061744713E+01  2.303374485650E+01  2.331014979478E+01
  2.358987159231E+01  2.387295005142E+01  2.415942545204E+01  2.444933855746E+01
  2.474273062015E+01  2.503964338759E+01  2.534011910824E+01  2.564420053754E+01
  2.595193094399E+01  2.626335411532E+01  2.657851436471E+01  2.689745653708E+01
  2.722022601553E+01  2.754686872771E+01  2.787743115245E+01  2.821196032628E+01
  2.855050385019E+01  2.889310989639E+01  2.923982721515E+01  2.959070514173E+01
  2.994579360343E+01  3.030514312667E+01  3.066880484419E+01  3.103683050232E+01
  3.140927246835E+01  3.178618373797E+01  3.216761794283E+01  3.255362935814E+01
  3.294427291044E+01  3.333960418536E+01  3.373967943559E+01  3.414455558882E+01
  3.455429025588E+01  3.496894173895E+01  3.538856903982E+01  3.581323186830E+01
  3.624299065072E+01  3.667790653853E+01  3.711804141699E+01  3.756345791399E+01
  3.801421940896E+01  3.847039004187E+01  3.893203472237E+01  3.939921913904E+01
  3.987200976871E+01  4.035047388593E+01  4.083467957256E+01  4.132469572743E+01
  4.182059207616E+01  4.232243918108E+01  4.283030845125E+01  4.334427215266E+01
  4.386440341850E+01  4.439077625952E+01
</grid-data>
</grid>
<valence-charge total-charge="14" is-unscreening-charge="yes"
 rescaled-to-z-pseudo="no">
<radfunc>
<data npts="458">
  1.349306302291E+00  1.349947660764E+00  1.351926916490E+00  1.355203994517E+00
  1.359761991544E+00  1.365758349585E+00  1.373405697877E+00  1.382169548652E+00
  1.392032453873E+00  1.403546047396E+00  1.416539172818E+00  1.430680226181E+00
  1.447796076228E+00  1.465701667537E+00  1.483619308928E+00  1.504295535004E+00
  1.528154989910E+00  1.550820748778E+00  1.576358848632E+00  1.605132916882E+00
  1.637552371094E+00  1.666420417390E+00  1.698177579587E+00  1.733111965914E+00
  1.771540002386E+00  1.813809066556E+00  1.860300314299E+00  1.898189508608E+00
  1.938878888633E+00  1.982572823789E+00  2.029489936277E+00  2.079863931252E+00
  2.133944434625E+00  2.191997826851E+00  2.254308057572E+00  2.321177421695E+00
  2.392927272351E+00  2.469898639888E+00  2.524291254641E+00  2.581276721502E+00
  2.640971173337E+00  2.703494798177E+00  2.768971801243E+00  2.837530332599E+00
  2.909302374624E+00  2.984423582763E+00  3.063033072216E+00  3.145273142345E+00
  3.231288929616E+00  3.321227978912E+00  3.415239721904E+00  3.513474850082E+00
  3.616084568784E+00  3.723219717356E+00  3.835029739271E+00  3.951661484795E+00
  4.073257827528E+00  4.199956074996E+00  4.331886152433E+00  4.469168538019E+00
  4.611911927272E+00  4.760210604025E+00  4.914141495665E+00  5.073760891092E+00
  5.239100801401E+00  5.410164945726E+00  5.586924348201E+00  5.677420602947E+00
  5.769312536799E+00  5.862585128471E+00  5.957220341139E+00  6.053196938400E+00
  6.150490294444E+00  6.249072198652E+00  6.348910654941E+00  6.449969676214E+00
  6.552209074324E+00  6.655584246078E+00  6.760045955851E+00  6.865540115480E+00
  6.972007562208E+00  7.079383835520E+00  7.187598953861E+00  7.296577192283E+00
  7.406236862227E+00  7.516490094758E+00  7.627242628671E+00  7.738393605060E+00
  7.849835370054E+00  7.961453287560E+00  8.073125564009E+00  8.184723087247E+00
  8.296109281841E+00  8.407139983235E+00  8.517663333319E+00  8.627519700127E+00
  8.736541624494E+00  8.844553796644E+00  8.951373065793E+00  9.056808485939E+00
  9.160661401115E+00  9.262725573432E+00  9.362787357300E+00  9.460625923210E+00
  9.556013534462E+00  9.648715880188E+00  9.738492467906E+00  9.825097078737E+00
  9.908278288240E+00  9.987780055583E+00  1.006334238350E+01  1.013470205116E+01
  1.020159342155E+01  1.026374932482E+01  1.032090201798E+01  1.037278422129E+01
  1.041913023056E+01  1.045967710404E+01  1.049416592170E+01  1.052234311371E+01
  1.054396185406E+01  1.055878351410E+01  1.056657916978E+01  1.056713115515E+01
  1.056023465353E+01  1.054569931639E+01  1.052335089911E+01  1.049303290112E+01
  1.045460819706E+01  1.040796064441E+01  1.035299665191E+01  1.028964669215E+01
  1.021786674110E+01  1.013763962641E+01  1.004897626624E+01  9.951916779716E+00
  9.846531450809E+00  9.732921527010E+00  9.611219835494E+00  9.481591200026E+00
  9.344232643330E+00  9.199373361273E+00  9.047274457178E+00  8.888228426906E+00
  8.722558387957E+00  8.550617048690E+00  8.372785416889E+00  8.189471250128E+00
  8.001107253754E+00  7.808149035716E+00  7.611072830764E+00  7.410373009777E+00
  7.206559392982E+00  7.000154388493E+00  6.791689980012E+00  6.581704589445E+00
  6.370739841675E+00  6.159337259816E+00  5.948034919783E+00  5.737364093198E+00
  5.527845907485E+00  5.319988051731E+00  5.114281556334E+00  4.911197673446E+00
  4.711184884250E+00  4.514666058589E+00  4.322035792082E+00  4.133657945751E+00
  3.949863413510E+00  3.770948143376E+00  3.597171439095E+00  3.428754569664E+00
  3.265879714939E+00  3.108689275745E+00  2.957285576445E+00  2.811730986412E+00
  2.672048484033E+00  2.538222682473E+00  2.410201330333E+00  2.287897292367E+00
  2.171192260011E+00  2.059945829182E+00  1.954007491832E+00  1.853218504327E+00
  1.757413248567E+00  1.666420768681E+00  1.580066117734E+00  1.498171619312E+00
  1.420558032508E+00  1.347045621161E+00  1.277455128639E+00  1.211608659952E+00
  1.149330473564E+00  1.090447685754E+00  1.034790890800E+00  9.821947006167E-01
  9.324982077613E-01  8.855453759469E-01  8.411853623687E-01  7.992727762547E-01
  7.596678781091E-01  7.222367241310E-01  6.868512602564E-01  6.533893702080E-01
  6.217348818399E-01  5.917775359389E-01  5.634129215045E-01  5.365423813658E-01
  5.110728918302E-01  4.869169198257E-01  4.639922609417E-01  4.422218613958E-01
  4.215336268710E-01  4.018602210026E-01  3.831388559624E-01  3.653110775057E-01
  3.483225465988E-01  3.321228195570E-01  3.166651284324E-01  3.019061632057E-01
  2.878058571509E-01  2.743271765738E-01  2.614359159535E-01  2.491004993629E-01
  2.372917888937E-01  2.259829006757E-01  2.151490289496E-01  2.047672785403E-01
  1.948165059652E-01  1.852771693214E-01  1.761311870059E-01  1.673618052487E-01
  1.589534743694E-01  1.508917336129E-01  1.431631043661E-01  1.357549915165E-01
  1.286555926786E-01  1.218538149842E-01  1.153391991076E-01  1.091018501834E-01
  1.031323752561E-01  9.742182689592E-02  9.196165260894E-02  8.674364966806E-02
  8.175992499433E-02  7.700285972213E-02  7.246507808934E-02  6.813942030336E-02
  6.401891904566E-02  6.009677929087E-02  5.636636113221E-02  5.282116532139E-02
  4.945482124956E-02  4.626107711434E-02  4.323379203799E-02  4.036692991446E-02
  3.765455482809E-02  3.509082779152E-02  3.267000472097E-02  3.038643547114E-02
  2.823456381077E-02  2.620892822514E-02  2.430416344170E-02  2.251500258209E-02
  2.083627984829E-02  1.926293365281E-02  1.779001010320E-02  1.641266675036E-02
  1.512617650858E-02  1.392593165416E-02  1.280744780919E-02  1.176636781809E-02
  1.079846542751E-02  9.899648685411E-03  9.065962982051E-03  8.293593664819E-03
  7.578868169579E-03  6.918257623057E-03  6.308377883477E-03  5.745989999591E-03
  5.228000080854E-03  4.751458583558E-03  4.313559028678E-03  3.911636176900E-03
  3.543163694556E-03  3.205751350835E-03  2.897141791752E-03  2.615206939898E-03
  2.357944071075E-03  2.123471619707E-03  1.910024764508E-03  1.715950844454E-03
  1.539704652902E-03  1.379843654731E-03  1.235023168005E-03  1.103991547817E-03
  9.855854060242E-04  8.787248963788E-04  7.824090907630E-04  6.957114674028E-04
  6.177755290245E-04  5.478105668421E-04  4.850875761712E-04  4.289353336206E-04
  3.787366468583E-04  3.339247720152E-04  2.939799987420E-04  2.584264069724E-04
  2.268287914974E-04  1.987897499156E-04  1.739469301979E-04  1.519704331385E-04
  1.325603644709E-04  1.154445312105E-04  1.003762766591E-04  8.713244847583E-05
  7.551149424907E-05  6.533167908803E-05  5.642941985593E-05  4.865773079040E-05
  4.188477538315E-05  3.599251951617E-05  3.087548097242E-05  2.643957055283E-05
  2.260102013842E-05  1.928539313857E-05  1.642667286469E-05  1.396642446552E-05
  1.185302615804E-05  1.004096558880E-05  8.490197265628E-06  7.165557110958E-06
  6.036230305891E-06  5.075268719516E-06  4.259154350351E-06  3.567405346292E-06
  2.982221315089E-06  2.488164788437E-06  2.071875858099E-06  1.721817160864E-06
  1.428046549336E-06  1.182014946304E-06  9.763870403834E-07  8.048826387506E-07
  6.621366477983E-07  5.435758036564E-07  4.453104207019E-07  3.640395668253E-07
  2.969682086680E-07  2.417349978513E-07  1.963494900457E-07  1.591377023535E-07
  1.286950207907E-07  1.038455686362E-07  8.360723814455E-08  6.716167272946E-08
  5.382856443277E-08  4.304370255094E-08  3.434027399643E-08  2.733297465341E-08
  2.170454399488E-08  1.719438292314E-08  1.358895754788E-08  1.071372979328E-08
  8.426389693319E-09  6.611194345828E-09  5.174245094957E-09  4.039557924289E-09
  3.145802579372E-09  2.443603889995E-09  1.893314400756E-09  1.463180995483E-09
  1.127839948660E-09  8.670849678605E-10  6.648614985517E-10  5.084480218277E-10
  3.877914443946E-10  2.949690999636E-10  2.237544783414E-10  1.692676849866E-10
  1.276949087104E-10  9.606392570446E-11  7.206497056126E-11  5.390822605403E-11
  4.021078105023E-11  2.990723013695E-11  2.217918249379E-11  1.639984829585E-11
  1.209061012284E-11  8.887091440491E-12  6.512727061463E-12  4.758240889121E-12
  3.465760440305E-12  2.516559246055E-12  1.821628608446E-12  1.314448793523E-12
  9.454644019592E-13  6.778758467799E-13  4.844438979312E-13  3.450711795829E-13
  2.291705192627E-13  1.622515039369E-13  1.144841253492E-13  2.517109082715E-14
  1.708418591111E-14  1.154490520455E-14  7.767255584017E-15  5.202391070353E-15
  3.468752555631E-15  2.302263541160E-15  1.520982858735E-15  1.000131388241E-15
  6.545289213647E-16  4.262996396216E-16  2.763060686850E-16  1.782091116567E-16
  1.143688600237E-16  7.302947112896E-17  4.639538164266E-17  2.932317677602E-17
  1.843656772784E-17  1.153067433402E-17  7.173108167974E-18  4.438234268863E-18
  2.731083795484E-18  1.671295483121E-18  1.017035166256E-18  6.153950135948E-19
  3.702351528069E-19  2.214506965149E-19  1.316806172500E-19  7.783615557895E-20
  4.573246053054E-20  2.670668577702E-20  1.550014830440E-20  8.940049935225E-21
  5.123888681718E-21  2.917978573268E-21  1.651025580661E-21  9.280705874548E-22
  5.182383118006E-22  2.874515746735E-22  1.583621776118E-22  8.664715185072E-23
  4.708007229046E-23  2.540172416721E-23  1.360805560641E-23  0.000000000000E+00
  0.000000000000E+00  0.000000000000E+00  0.000000000000E+00  0.000000000000E+00
  0.000000000000E+00  0.000000000000E+00  0.000000000000E+00  0.000000000000E+00
  0.000000000000E+00  0.000000000000E+00
</data>
</radfunc>
</valence-charge>
<pseudocore-charge matching-radius="0.941861838399"
 number-of-continuous-derivatives="4">
<annotation model-charge-form="Teter function with specified parameters" />
<radfunc>
<data npts="291">
  5.258432770051E+01  5.258178735206E+01  5.257394851079E+01  5.256097225764E+01
  5.254292936323E+01  5.251920227967E+01  5.248895812716E+01  5.245432002872E+01
  5.241536561383E+01  5.236992844202E+01  5.231869982100E+01  5.226300198882E+01
  5.219566591987E+01  5.212531452870E+01  5.205500891031E+01  5.197399398238E+01
  5.188065801443E+01  5.179214085396E+01  5.169257872826E+01  5.158061761643E+01
  5.145474399949E+01  5.134289878506E+01  5.122011746333E+01  5.108535962940E+01
  5.093749196981E+01  5.077528125666E+01  5.059738709982E+01  5.045280348241E+01
  5.029792346275E+01  5.013204807923E+01  4.995443619324E+01  4.976430277531E+01
  4.956081726462E+01  4.934310203388E+01  4.911023099783E+01  4.886122840925E+01
  4.859506789398E+01  4.831067178399E+01  4.811038795307E+01  4.790115125739E+01
  4.768260427729E+01  4.745437962197E+01  4.721610011498E+01  4.696737904477E+01
  4.670782048755E+01  4.643701971007E+01  4.615456366058E+01  4.586003155684E+01
  4.555299558038E+01  4.523302168710E+01  4.489967054446E+01  4.455249860643E+01
  4.419105933747E+01  4.381490459776E+01  4.342358620172E+01  4.301665766271E+01
  4.259367613678E+01  4.215420457846E+01  4.169781412166E+01  4.122408669850E+01
  4.073261790856E+01  4.022302015035E+01  3.969492602586E+01  3.914799202801E+01
  3.858190251896E+01  3.799637400551E+01  3.739115971492E+01  3.708110452157E+01
  3.676605447203E+01  3.644599126811E+01  3.612089987429E+01  3.579076869527E+01
  3.545558975756E+01  3.511535889538E+01  3.477007594022E+01  3.441974491433E+01
  3.406437422751E+01  3.370397687719E+01  3.333857065139E+01  3.296817833422E+01
  3.259282791365E+01  3.221255279098E+01  3.182739199175E+01  3.143739037740E+01
  3.104259885735E+01  3.064307460073E+01  3.023888124730E+01  2.983008911669E+01
  2.941677541553E+01  2.899902444125E+01  2.857692778225E+01  2.815058451302E+01
  2.772010138370E+01  2.728559300281E+01  2.684718201218E+01  2.640499925301E+01
  2.595918392180E+01  2.550988371499E+01  2.505725496094E+01  2.460146273811E+01
  2.414268097771E+01  2.368109254975E+01  2.321688933075E+01  2.275027225165E+01
  2.228145132436E+01  2.181064564534E+01  2.133808337459E+01  2.086400168833E+01
  2.038864670371E+01  1.991227337401E+01  1.943514535240E+01  1.895753482280E+01
  1.847972229616E+01  1.800199637046E+01  1.752465345300E+01  1.704799744341E+01
  1.657233937601E+01  1.609799702022E+01  1.562529443777E+01  1.515456149573E+01
  1.468613333438E+01  1.422034978927E+01  1.375755476683E+01  1.329809557336E+01
  1.284232219720E+01  1.239058654437E+01  1.194324162812E+01  1.150064071319E+01
  1.106313641603E+01  1.063107976230E+01  1.020481920376E+01  9.784699596634E+00
  9.371061144370E+00  8.964238307861E+00  8.564558686783E+00  8.172341876190E+00
  7.787898302947E+00  7.411528047109E+00  7.043519653832E+00  6.684148941902E+00
  6.333677815455E+00  5.992353085934E+00  5.660405311777E+00  5.338047663759E+00
  5.025474824298E+00  4.722861929398E+00  4.430363562166E+00  4.148112807116E+00
  3.876220374621E+00  3.614773804959E+00  3.363836761428E+00  3.123448421873E+00
  2.893622977830E+00  2.674349250109E+00  2.465590429273E+00  2.267283948877E+00
  2.079341498647E+00  1.901649183948E+00  1.734067836943E+00  1.576433483704E+00
  1.428557970322E+00  1.290229749655E+00  1.161214828866E+00  1.041257876261E+00
  9.300834842036E-01  8.273975830642E-01  7.328889992666E-01  6.462311485408E-01
  5.670838535372E-01  4.950952729900E-01  4.299039276999E-01  3.711408067612E-01
  3.184315357225E-01  2.713985867887E-01  2.296635097794E-01  1.928491613992E-01
  1.605819094887E-01  1.324937883478E-01  1.082245809930E-01  8.742380436070E-02
  6.975257402023E-02  5.488532594238E-02  4.251137428730E-02  3.233628603422E-02
  2.408305557185E-02  1.749306507971E-02  1.232681963065E-02  8.364449390024E-03
  5.405975022216E-03  3.271336375139E-03  1.800188616574E-03  8.514741557804E-04
  3.027827996762E-04  4.951656078747E-05  3.879244539624E-06  9.371428635113E-05
  2.612171769218E-04  4.615511063129E-04  6.613960839123E-04  8.374626771993E-04
  9.750016015823E-04  1.066339653682E-03  1.109470904819E-03  1.106729682551E-03
  1.063568718887E-03  9.874620181628E-04  8.869476094615E-04  7.708205395315E-04
  6.474813976555E-04  5.244405272833E-04  4.079730651294E-04  3.029152543721E-04
  2.125882958809E-04  1.388325052855E-04  8.213188356253E-05  4.180749886246E-05
  1.625738841168E-05  3.221042689792E-06  4.789722924962E-08  3.951543163066E-06
  1.223443651897E-05  2.247155215430E-05  3.264546789551E-05  4.122953004610E-05
  4.721978573493E-05  5.012002097931E-05  4.988729144094E-05  4.684759341714E-05
  4.159267034358E-05  3.486932788433E-05  2.747205602599E-05  2.014832206512E-05
  1.352376579115E-05  8.051916201035E-06  3.990215086395E-06  1.401350045472E-06
  1.764315365351E-07  7.462377065811E-08  7.726270124692E-07  1.917001572019E-06
  3.172725861090E-06  4.262507372947E-06  4.993050634191E-06  5.266502255031E-06
  5.077377116762E-06  4.497155548431E-06  3.650194222724E-06  2.685440855735E-06
  1.748598114698E-06  9.588576270103E-07  3.932304351003E-07  8.002741100411E-08
  0.000000000000E+00  0.000000000000E+00  0.000000000000E+00  0.000000000000E+00
  0.000000000000E+00  0.000000000000E+00  0.000000000000E+00  0.000000000000E+00
  0.000000000000E+00  0.000000000000E+00  0.000000000000E+00  0.000000000000E+00
  0.000000000000E+00  0.000000000000E+00  0.000000000000E+00  0.000000000000E+00
  0.000000000000E+00  0.000000000000E+00  0.000000000000E+00  0.000000000000E+00
  0.000000000000E+00  0.000000000000E+00  0.000000000000E+00  0.000000000000E+00
  0.000000000000E+00  0.000000000000E+00  0.000000000000E+00  0.000000000000E+00
  0.000000000000E+00  0.000000000000E+00  0.000000000000E+00  0.000000000000E+00
  0.000000000000E+00  0.000000000000E+00  0.000000000000E+00  0.000000000000E+00
  0.000000000000E+00  0.000000000000E+00  0.000000000000E+00
</data>
</radfunc>
</pseudocore-charge>
<semilocal-potentials set="lj">
<slps n="5" l="s" j="0.5" rc="1.61105461578" eref="-2.90039710809">
<radfunc>
<data npts="291">
 -2.751526258244E+00 -2.753529197031E+00 -2.759707412933E+00 -2.769927074123E+00
 -2.784121273514E+00 -2.802759291344E+00 -2.826470757540E+00 -2.853564193065E+00
 -2.883953850563E+00 -2.919294431809E+00 -2.959002645769E+00 -3.002011232145E+00
 -3.053780090267E+00 -3.107604055338E+00 -3.161126263337E+00 -3.222473027720E+00
 -3.292717494467E+00 -3.358911611646E+00 -3.432876953627E+00 -3.515442101606E+00
 -3.607502529362E+00 -3.688631827869E+00 -3.776975192884E+00 -3.873080412246E+00
 -3.977518470417E+00 -4.090880688415E+00 -4.213774893064E+00 -4.312573247620E+00
 -4.417345261507E+00 -4.528354536852E+00 -4.645862638990E+00 -4.770126800731E+00
 -4.901397334806E+00 -5.039914745224E+00 -5.185906532558E+00 -5.339583693392E+00
 -5.501136920442E+00 -5.670732517005E+00 -5.788333483748E+00 -5.909603388884E+00
 -6.034567755189E+00 -6.163244261175E+00 -6.295642090057E+00 -6.431761271339E+00
 -6.571592018987E+00 -6.715114070528E+00 -6.862296031754E+00 -7.013094731973E+00
 -7.167454595006E+00 -7.325307031327E+00 -7.486569856825E+00 -7.651146743778E+00
 -7.818926709515E+00 -7.989783648199E+00 -8.163575910882E+00 -8.340145938733E+00
 -8.519319953884E+00 -8.700907711893E+00 -8.884702319196E+00 -9.070480118306E+00
 -9.258000642765E+00 -9.447006643097E+00 -9.637224184214E+00 -9.828362813916E+00
 -1.002011580133E+01 -1.021216044342E+01 -1.040415843693E+01 -1.050003006068E+01
 -1.059575631272E+01 -1.069129072065E+01 -1.078658592884E+01 -1.088159371683E+01
 -1.097626501839E+01 -1.107054994137E+01 -1.116439778828E+01 -1.125775707744E+01
 -1.135057556492E+01 -1.144280026697E+01 -1.153437748316E+01 -1.162525282002E+01
 -1.171537121535E+01 -1.180467696299E+01 -1.189311373825E+01 -1.198062462381E+01
 -1.206715213624E+01 -1.215263825311E+01 -1.223702444062E+01 -1.232025168192E+01
 -1.240226050604E+01 -1.248299101748E+01 -1.256238292661E+01 -1.264037558069E+01
 -1.271690799585E+01 -1.279191888987E+01 -1.286534671596E+01 -1.293712969747E+01
 -1.300720586380E+01 -1.307551308738E+01 -1.314198912192E+01 -1.320657164205E+01
 -1.326919828425E+01 -1.332980668938E+01 -1.338833454667E+01 -1.344471963944E+01
 -1.349889989247E+01 -1.355081342115E+01 -1.360039858239E+01 -1.364759402745E+01
 -1.369233875655E+01 -1.373457217536E+01 -1.377423415327E+01 -1.381126508351E+01
 -1.384560594479E+01 -1.387719836467E+01 -1.390598468419E+01 -1.393190802374E+01
 -1.395491234990E+01 -1.397494254288E+01 -1.399194446431E+01 -1.400586502498E+01
 -1.401665225192E+01 -1.402425535464E+01 -1.402862478962E+01 -1.402971232277E+01
 -1.402747108907E+01 -1.402185564872E+01 -1.401282203935E+01 -1.400032782336E+01
 -1.398433213005E+01 -1.396479569182E+01 -1.394168087408E+01 -1.391495169856E+01
 -1.388457385992E+01 -1.385051473586E+01 -1.381274339113E+01 -1.377123057647E+01
 -1.372594872369E+01 -1.367687193899E+01 -1.362397599714E+01 -1.356723833990E+01
 -1.350663808320E+01 -1.344215603832E+01 -1.337377475393E+01 -1.330147858669E+01
 -1.322525381006E+01 -1.314508877208E+01 -1.306097411523E+01 -1.297290307261E+01