<?xml version="1.0" encoding="UTF-8" ?>
<psml version="1.1" energy_unit="hartree" length_unit="bohr"
 uuid="319dad50-53a0-11e8-7e63-174a659e583e"
 xmlns="http://esl.cecam.org/PSML/ns/1.1">
<provenance creator="ONCVPSP-3.3.0+psml-3.3.0-73 (fully-relativistic)"
 date="2018-05-09">
<annotation action="semilocal-pseudopotential-generation"
 action-cont="projectors-generation" />
<input-file name="oncvpsp-input">
<![CDATA[# atsym z nc nv iexc psfile
C 6 1 2 -116133 upf
# n l f
1 0 2.0
2 0 2.0
2 1 2.0
# lmax
1
# l rc ep ncon nbas qcut
0 1.2 0.0 4 7 9.0
1 1.25 0.0 4 8 9.4
# lloc lpopt rc5 dvloc0
4 5 1.2 0.0
# l nproj debl
0 2 2.0
1 2 1.5
# icmod fcfact
3 4 1.55
# epsh1 epsh2 depsh
-12.0 12.0 0.02
# rlmax drl
6.0 0.01
 0
]]>
</input-file>
</provenance>
<pseudo-atom-spec atomic-label="C" atomic-number="6" z-pseudo="4"
 flavor="Hamann&apos;s oncvpsp" relativity="dirac" spin-dft="no"
 core-corrections="yes">
<annotation pseudo-energy="-5.36402221060" />
<exchange-correlation>
<annotation oncvpsp-xc-code="-116133" oncvpsp-xc-type="libxc-interface" />
<libxc-info number-of-functionals="2">
<functional name="Perdew, Burke &amp; Ernzerhof SOL (GGA)" type="exchange"
 id="116" />
<functional name="Perdew, Burke &amp; Ernzerhof SOL (GGA)" type="correlation"
 id="133" />
</libxc-info>
</exchange-correlation>
<valence-configuration total-valence-charge="4">
<shell n="2" l="s" occupation="2" />
<shell n="2" l="p" occupation="2" />
</valence-configuration>
</pseudo-atom-spec>
<grid npts="457">
<annotation type="sampled from oncvpsp log grid"
 recipe="r(i:1..N) = r1*exp(a*(i-1)) + r=0; resampled"
 recipe-cont="r1: scale; a: step" scale="0.833333333333E-04"
 step="0.119285708653E-01" delta="0.500000000000E-02" rmax="44.1860389071" />
<grid-data>
  0.000000000000E+00  5.045625992470E-03  1.007824195345E-02  1.511897001109E-02
  2.013049738999E-02  2.525132916864E-02  3.056134357623E-02  3.568774490113E-02
  4.069159781681E-02  4.584688868969E-02  5.104279894154E-02  5.615372632002E-02
  6.177641205049E-02  6.715622392913E-02  7.300453786039E-02  7.842110024149E-02
  8.423954377804E-02  8.941668576200E-02  9.491200134852E-02  1.007450446548E-01
  1.069365715431E-01  1.121626615380E-01  1.176441554255E-01  1.233935350321E-01
  1.294238921827E-01  1.357489585120E-01  1.423831367325E-01  1.475706852080E-01
  1.529472354136E-01  1.585196733870E-01  1.642951360498E-01  1.702810203484E-01
  1.764849927273E-01  1.829149989485E-01  1.895792742673E-01  1.964863539803E-01
  2.036450843570E-01  2.110646339690E-01  2.161605784915E-01  2.213795594986E-01
  2.267245475832E-01  2.321985850600E-01  2.378047876977E-01  2.435463464919E-01
  2.494265294816E-01  2.554486836094E-01  2.616162366264E-01  2.679326990435E-01
  2.744016661293E-01  2.810268199563E-01  2.878119314973E-01  2.947608627714E-01
  3.018775690421E-01  3.091661010691E-01  3.166306074133E-01  3.242753367987E-01
  3.321046405303E-01  3.401229749713E-01  3.483349040790E-01  3.567451020031E-01
  3.653583557459E-01  3.741795678870E-01  3.832137593741E-01  3.924660723804E-01
  4.019417732319E-01  4.116462554048E-01  4.215850425953E-01  4.266440631065E-01
  4.317637918638E-01  4.369449573661E-01  4.421882968545E-01  4.474945564168E-01
  4.528644910938E-01  4.582988649869E-01  4.637984513667E-01  4.693640327831E-01
  4.749964011765E-01  4.806963579907E-01  4.864647142866E-01  4.923022908580E-01
  4.982099183483E-01  5.041884373685E-01  5.102386986169E-01  5.163615630003E-01
  5.225579017563E-01  5.288285965774E-01  5.351745397363E-01  5.415966342131E-01
  5.480957938237E-01  5.546729433496E-01  5.613290186698E-01  5.680649668938E-01
  5.748817464965E-01  5.817803274545E-01  5.887616913839E-01  5.958268316806E-01
  6.029767536607E-01  6.102124747047E-01  6.175350244011E-01  6.249454446939E-01
  6.324447900302E-01  6.400341275106E-01  6.477145370407E-01  6.554871114852E-01
  6.633529568230E-01  6.713131923049E-01  6.793689506126E-01  6.875213780199E-01
  6.957716345562E-01  7.041208941708E-01  7.125703449009E-01  7.211211890397E-01
  7.297746433082E-01  7.385319390279E-01  7.473943222962E-01  7.563630541638E-01
  7.654394108137E-01  7.746246837435E-01  7.839201799484E-01  7.933272221078E-01
  8.028471487731E-01  8.124813145584E-01  8.222310903331E-01  8.320978634171E-01
  8.420830377781E-01  8.521880342314E-01  8.624142906422E-01  8.727632621299E-01
  8.832364212755E-01  8.938352583308E-01  9.045612814307E-01  9.154160168079E-01
  9.264010090096E-01  9.375178211177E-01  9.487680349711E-01  9.601532513908E-01
  9.716750904075E-01  9.833351914924E-01  9.951352137903E-01  1.007076836356E+00
  1.019161758392E+00  1.031391699493E+00  1.043768399887E+00  1.056293620685E+00
  1.068969144133E+00  1.081796773863E+00  1.094778335149E+00  1.107915675171E+00
  1.121210663273E+00  1.134665191233E+00  1.148281173527E+00  1.162060547610E+00
  1.176005274181E+00  1.190117337471E+00  1.204398745521E+00  1.218851530467E+00
  1.233477748833E+00  1.248279481819E+00  1.263258835601E+00  1.278417941628E+00
  1.293758956927E+00  1.309284064410E+00  1.324995473183E+00  1.340895418862E+00
  1.356986163888E+00  1.373269997855E+00  1.389749237829E+00  1.406426228683E+00
  1.423303343427E+00  1.440382983548E+00  1.457667579351E+00  1.475159590303E+00
  1.492861505386E+00  1.510775843451E+00  1.528905153572E+00  1.547252015415E+00
  1.565819039600E+00  1.584608868076E+00  1.603624174492E+00  1.622867664586E+00
  1.642342076561E+00  1.662050181480E+00  1.681994783658E+00  1.702178721062E+00
  1.722604865715E+00  1.743276124103E+00  1.764195437592E+00  1.785365782843E+00
  1.806790172238E+00  1.828471654304E+00  1.850413314156E+00  1.872618273926E+00
  1.895089693213E+00  1.917830769532E+00  1.940844738766E+00  1.964134875631E+00
  1.987704494139E+00  2.011556948068E+00  2.035695631445E+00  2.060123979023E+00
  2.084845466771E+00  2.109863612372E+00  2.135181975721E+00  2.160804159429E+00
  2.186733809342E+00  2.212974615054E+00  2.239530310435E+00  2.266404674160E+00
  2.293601530250E+00  2.321124748613E+00  2.348978245597E+00  2.377165984544E+00
  2.405691976358E+00  2.434560280075E+00  2.463775003436E+00  2.493340303477E+00
  2.523260387118E+00  2.553539511764E+00  2.584181985905E+00  2.615192169736E+00
  2.646574475773E+00  2.678333369482E+00  2.710473369916E+00  2.742999050355E+00
  2.775915038959E+00  2.809226019427E+00  2.842936731660E+00  2.877051972440E+00
  2.911576596109E+00  2.946515515262E+00  2.981873701445E+00  3.017656185863E+00
  3.053868060093E+00  3.090514476814E+00  3.127600650536E+00  3.165131858342E+00
  3.203113440642E+00  3.241550801930E+00  3.280449411553E+00  3.319814804492E+00
  3.359652582146E+00  3.399968413132E+00  3.440768034089E+00  3.482057250498E+00
  3.523841937504E+00  3.566128040754E+00  3.608921577243E+00  3.652228636170E+00
  3.696055379804E+00  3.740408044362E+00  3.785292940894E+00  3.830716456185E+00
  3.876685053659E+00  3.923205274303E+00  3.970283737595E+00  4.017927142446E+00
  4.066142268155E+00  4.114935975373E+00  4.164315207078E+00  4.214286989563E+00
  4.264858433437E+00  4.316036734639E+00  4.367829175454E+00  4.420243125560E+00
  4.473286043066E+00  4.526965475583E+00  4.581289061290E+00  4.636264530026E+00
  4.691899704386E+00  4.748202500839E+00  4.805180930849E+00  4.862843102019E+00
  4.921197219243E+00  4.980251585874E+00  5.040014604905E+00  5.100494780163E+00
  5.161700717525E+00  5.223641126136E+00  5.286324819649E+00  5.349760717485E+00
  5.413957846095E+00  5.478925340248E+00  5.544672444331E+00  5.611208513663E+00
  5.678543015827E+00  5.746685532017E+00  5.815645758401E+00  5.885433507502E+00
  5.956058709592E+00  6.027531414107E+00  6.099861791076E+00  6.173060132569E+00
  6.247136854160E+00  6.322102496410E+00  6.397967726367E+00  6.474743339083E+00
  6.552440259152E+00  6.631069542262E+00  6.710642376769E+00  6.791170085290E+00
  6.872664126314E+00  6.955136095830E+00  7.038597728980E+00  7.123060901727E+00
  7.208537632548E+00  7.295040084139E+00  7.382580565148E+00  7.471171531930E+00
  7.560825590313E+00  7.651555497397E+00  7.743374163366E+00  7.836294653326E+00
  7.930330189166E+00  8.025494151436E+00  8.121800081253E+00  8.219261682228E+00
  8.317892822415E+00  8.417707536284E+00  8.518720026720E+00  8.620944667040E+00
  8.724396003045E+00  8.829088755081E+00  8.935037820142E+00  9.042258273984E+00
  9.150765373272E+00  9.260574557751E+00  9.371701452444E+00  9.484161869873E+00
  9.597971812312E+00  9.713147474059E+00  9.829705243748E+00  9.947661706673E+00
  1.006703364715E+01  1.018783805092E+01  1.031009210753E+01  1.043381321282E+01
  1.055901897137E+01  1.068572719903E+01  1.081395592542E+01  1.094372339652E+01
  1.107504807728E+01  1.120794865421E+01  1.134244403806E+01  1.147855336652E+01
  1.161629600692E+01  1.175569155900E+01  1.189675985771E+01  1.203952097600E+01
  1.218399522771E+01  1.233020317044E+01  1.247816560849E+01  1.262790359579E+01
  1.277943843894E+01  1.293279170021E+01  1.308798520061E+01  1.324504102302E+01
  1.340398151529E+01  1.356482929348E+01  1.372760724500E+01  1.389233853194E+01
  1.405904659432E+01  1.422775515345E+01  1.439848821530E+01  1.457127007388E+01
  1.474612531477E+01  1.492307881854E+01  1.510215576436E+01  1.528338163354E+01
  1.546678221314E+01  1.565238359970E+01  1.584021220289E+01  1.603029474933E+01
  1.622265828632E+01  1.641733018576E+01  1.661433814799E+01  1.681371020576E+01
  1.701547472823E+01  1.721966042497E+01  1.742629635007E+01  1.763541190627E+01
  1.784703684914E+01  1.806120129133E+01  1.827793570683E+01  1.849727093531E+01
  1.871923818654E+01  1.894386904477E+01  1.917119547331E+01  1.940124981899E+01
  1.963406481682E+01  1.986967359462E+01  2.010810967776E+01  2.034940699389E+01
  2.059359987782E+01  2.084072307635E+01  2.109081175327E+01  2.134390149431E+01
  2.160002831224E+01  2.185922865198E+01  2.212153939581E+01  2.238699786856E+01
  2.265564184298E+01  2.292750954510E+01  2.320263965964E+01  2.348107133555E+01
  2.376284419158E+01  2.404799832188E+01  2.433657430174E+01  2.462861319336E+01
  2.492415655168E+01  2.522324643030E+01  2.552592538747E+01  2.583223649212E+01
  2.614222333002E+01  2.645593000998E+01  2.677340117010E+01  2.709468198414E+01
  2.741981816795E+01  2.774885598597E+01  2.808184225780E+01  2.841882436489E+01
  2.875985025727E+01  2.910496846036E+01  2.945422808188E+01  2.980767881887E+01
  3.016537096469E+01  3.052735541627E+01  3.089368368126E+01  3.126440788544E+01
  3.163958078006E+01  3.201925574942E+01  3.240348681842E+01  3.279232866024E+01
  3.318583660416E+01  3.358406664341E+01  3.398707544313E+01  3.439492034845E+01
  3.480765939263E+01  3.522535130534E+01  3.564805552101E+01  3.607583218726E+01
  3.650874217351E+01  3.694684707959E+01  3.739020924454E+01  3.783889175548E+01
  3.829295845654E+01  3.875247395802E+01  3.921750364552E+01  3.968811368927E+01
  4.016437105354E+01  4.064634350618E+01  4.113409962825E+01  4.162770882379E+01
  4.212724132968E+01  4.263276822563E+01  4.314436144434E+01  4.366209378167E+01
  4.418603890705E+01
</grid-data>
</grid>
<valence-charge total-charge="4" is-unscreening-charge="yes"
 rescaled-to-z-pseudo="no">
<radfunc>
<data npts="457">
  2.619063076121E-01  2.623684908002E-01  2.637498608038E-01  2.660536295125E-01
  2.692549323710E-01  2.734612539332E-01  2.788171341852E-01  2.849431699337E-01
  2.918224311376E-01  2.998329591085E-01  3.088469910747E-01  3.186263470733E-01
  3.304198419088E-01  3.427072260816E-01  3.571629377742E-01  3.715573432588E-01
  3.880801214275E-01  4.036897820280E-01  4.211773686838E-01  4.407545753962E-01
  4.626531210894E-01  4.820123296507E-01  5.031575703361E-01  5.262367893852E-01
  5.514066292146E-01  5.788321348083E-01  6.086862248167E-01  6.327785815755E-01
  6.584162965707E-01  6.856790435191E-01  7.146475542222E-01  7.454030715351E-01
  7.780266926006E-01  8.125985893957E-01  8.491970931150E-01  8.878976286201E-01
  9.287714852177E-01  9.718844104830E-01  1.001899577626E+00  1.032951359297E+00
  1.065052976322E+00  1.098215352115E+00  1.132446816203E+00  1.167752789027E+00
  1.204135448312E+00  1.241593377541E+00  1.280121197402E+00  1.319709181439E+00
  1.360342857518E+00  1.402002597174E+00  1.444663195398E+00  1.488293443939E+00
  1.532855701779E+00  1.578305467038E+00  1.624590955169E+00  1.671652688971E+00
  1.719423106579E+00  1.767826194196E+00  1.816777150950E+00  1.866182093775E+00
  1.915937810673E+00  1.965931571080E+00  2.016041002244E+00  2.066134040611E+00
  2.116068967076E+00  2.165694534604E+00  2.214850196198E+00  2.239199178628E+00
  2.263366440381E+00  2.287329465497E+00  2.311065240328E+00  2.334550274127E+00
  2.357760621555E+00  2.380671907138E+00  2.403259351661E+00  2.425497800517E+00
  2.447361753990E+00  2.468825399457E+00  2.489862645498E+00  2.510447157877E+00
  2.530552397370E+00  2.550151659397E+00  2.569218115413E+00  2.587724856027E+00
  2.605644935777E+00  2.622951419531E+00  2.639617430443E+00  2.655616199427E+00
  2.670921116072E+00  2.685505780966E+00  2.699344059366E+00  2.712410136156E+00
  2.724678572057E+00  2.736124361030E+00  2.746722988838E+00  2.756450492711E+00
  2.765283522071E+00  2.773199400287E+00  2.780176187393E+00  2.786192743728E+00
  2.791228794440E+00  2.795264994773E+00  2.798282996067E+00  2.800265512353E+00
  2.801196387428E+00  2.801060662246E+00  2.799844642442E+00  2.797535965758E+00
  2.794123669102E+00  2.789598254905E+00  2.783951756416E+00  2.777177801486E+00
  2.769271674334E+00  2.760230374751E+00  2.750052674086E+00  2.738739167331E+00
  2.726292320544E+00  2.712716512786E+00  2.698018071721E+00  2.682205301964E+00
  2.665288505256E+00  2.647279991533E+00  2.628194079985E+00  2.608047089204E+00
  2.586857315632E+00  2.564644999581E+00  2.541432278252E+00  2.517243125313E+00
  2.492103276829E+00  2.466040143545E+00  2.439082709794E+00  2.411261419618E+00
  2.382608051003E+00  2.353155579473E+00  2.322938032678E+00  2.291990337963E+00
  2.260348165279E+00  2.228047768148E+00  2.195125825711E+00  2.161619289164E+00
  2.127565236069E+00  2.093000736163E+00  2.057962732289E+00  2.022487939935E+00
  1.986612768639E+00  1.950373268068E+00  1.913805100975E+00  1.876943544510E+00
  1.839823520346E+00  1.802479653028E+00  1.764946354671E+00  1.727257932785E+00
  1.689448716597E+00  1.651553195865E+00  1.613606164847E+00  1.575642871498E+00
  1.537699191769E+00  1.499811806810E+00  1.462018284367E+00  1.424356923852E+00
  1.386865985461E+00  1.349582580387E+00  1.312542440901E+00  1.275780060263E+00
  1.239328562425E+00  1.203219678427E+00  1.167483711636E+00  1.132149509319E+00
  1.097244439036E+00  1.062794369786E+00  1.028823657842E+00  9.953551371850E-01
  9.624101144614E-01  9.300083683175E-01  8.981681530067E-01  8.669062061156E-01
  8.362377602571E-01  8.061765585658E-01  7.767348738183E-01  7.479235309959E-01
  7.197519330966E-01  6.922280899989E-01  6.653586501736E-01  6.391489350348E-01
  6.136029757221E-01  5.887235520975E-01  5.645122337472E-01  5.409694227722E-01
  5.180943981570E-01  4.958853615057E-01  4.743394839375E-01  4.534529539402E-01
  4.332210259803E-01  4.136380696774E-01  3.946976193557E-01  3.763924237899E-01
  3.587144959728E-01  3.416551627384E-01  3.252051140763E-01  3.093544519989E-01
  2.940927388087E-01  2.794090446386E-01  2.652919941397E-01  2.517298122038E-01
  2.387103686148E-01  2.262212215328E-01  2.142496597302E-01  2.027827434925E-01
  1.918073441266E-01  1.813101820133E-01  1.712778631558E-01  1.616969141831E-01
  1.525538157768E-01  1.438350344968E-01  1.355270529901E-01  1.276163985729E-01
  1.200896701862E-01  1.129335637284E-01  1.061348957763E-01  9.968062571101E-02
  9.355787627171E-02  8.775395256181E-02  8.225635953958E-02  7.705281802629E-02
  7.213127926920E-02  6.747993809860E-02  6.308724472037E-02  5.894191518706E-02
  5.503294059139E-02  5.134959502718E-02  4.788144236305E-02  4.461834187453E-02
  4.155045278027E-02  3.866823772825E-02  3.596246527747E-02  3.342421142078E-02
  3.104486019443E-02  2.881610341965E-02  2.672993962197E-02  2.477867217379E-02
  2.295490670611E-02  2.125154783528E-02  1.966179525124E-02  1.817913921352E-02
  1.679735550174E-02  1.551049986745E-02  1.431290203393E-02  1.319915929064E-02
  1.216412972857E-02  1.120292516224E-02  1.031090378341E-02  9.483662590588E-03
  8.717029637174E-03  8.007056139816E-03  7.350008486845E-03  6.742360184904E-03
  6.180783779882E-03  5.662142786167E-03  5.183483655956E-03  4.742027818016E-03
  4.335163812883E-03  3.960439549010E-03  3.615554701922E-03  3.298353275948E-03
  3.006816345719E-03  2.739054992214E-03  2.493303445880E-03  2.267912447144E-03
  2.061342832557E-03  1.872159352850E-03  1.699024727322E-03  1.540693937308E-03
  1.396008759876E-03  1.263892541500E-03  1.143345210142E-03  1.033438523044E-03
  9.333115465124E-04  8.421663630622E-04  7.592640005681E-04  6.839205773918E-04
  6.155036569396E-04  5.534288046740E-04  4.971563402744E-04  4.461882774036E-04
  4.000654433798E-04  3.583647709709E-04  3.206967545100E-04  2.867030625741E-04
  2.560542995576E-04  2.284479086104E-04  2.036062085790E-04  1.812745577931E-04
  1.612196377657E-04  1.432278501189E-04  1.271038203033E-04  1.126690019498E-04
  9.976037595875E-05  8.822923870854E-05  7.794007403549E-05  6.876950390416E-05
  6.060531294997E-05  5.334554232978E-05  4.689764856200E-05  4.117772327384E-05
  3.610976999983E-05  3.162503439120E-05  2.766138440148E-05  2.416273720845E-05
  2.107852981745E-05  1.836323046625E-05  1.597588811682E-05  1.387971747616E-05
  1.204171713611E-05  1.043231856178E-05  9.025063790799E-06  7.796309830174E-06
  6.724957856581E-06  5.792205437574E-06  4.981320097882E-06  4.277432655704E-06
  3.667348849700E-06  3.139377868286E-06  2.683176479249E-06  2.289607539745E-06
  1.950611744799E-06  1.659091546536E-06  1.408806246830E-06  1.194277332999E-06
  1.010703189661E-06  8.538823801839E-07  7.201447482806E-07  6.062896444202E-07
  5.095306329233E-07  4.274460839837E-07  3.579351005016E-07  2.991782726220E-07
  2.496027933325E-07  2.078515064733E-07  1.727554941368E-07  1.433098437792E-07
  1.186522665038E-07  9.804426700899E-08  8.085459270372E-08  6.654471456602E-08
  5.465611554938E-08  4.479918381507E-08  3.664352787179E-08  2.990954892828E-08
  2.436112249562E-08  1.979925660068E-08  1.605660797492E-08  1.299275034709E-08
  1.049010057501E-08  8.450418880371E-09  6.791808976120E-09  5.446152474149E-09
  4.356919700881E-09  3.477305998342E-09  2.768648812816E-09  2.199086433271E-09
  1.742424195314E-09  1.377178367929E-09  1.085771840739E-09  8.538591766808E-10
  6.697616332648E-10  5.239954260894E-10  4.088788491172E-10  3.182059123045E-10
  2.469759406639E-10  1.911701290119E-10  1.475673902004E-10  1.135929957541E-10
  8.719450839077E-11  6.674036558784E-11  5.093720982477E-11  3.876269017196E-11
  2.941099557407E-11  2.224883496597E-11  1.677996430442E-11  1.261668542098E-11
  9.457014843122E-12  7.066449862627E-12  5.263450666267E-12  3.907916942622E-12
  2.892069937223E-12  2.133260670087E-12  1.568315584030E-12  1.149105366078E-12
  8.390837284739E-13  6.105912992755E-13  4.427714844016E-13  3.199427459923E-13
  2.303611125783E-13  1.652610288078E-13  1.181232768600E-13  8.411685242852E-14
  5.967459930027E-14  0.000000000000E+00  0.000000000000E+00  0.000000000000E+00
  0.000000000000E+00  0.000000000000E+00  0.000000000000E+00  0.000000000000E+00
  0.000000000000E+00  0.000000000000E+00  0.000000000000E+00  0.000000000000E+00
  0.000000000000E+00  0.000000000000E+00  0.000000000000E+00  0.000000000000E+00
  0.000000000000E+00  0.000000000000E+00  0.000000000000E+00  0.000000000000E+00
  0.000000000000E+00  0.000000000000E+00  0.000000000000E+00  0.000000000000E+00
  0.000000000000E+00  0.000000000000E+00  0.000000000000E+00  0.000000000000E+00
  0.000000000000E+00  0.000000000000E+00  0.000000000000E+00  0.000000000000E+00
  0.000000000000E+00  0.000000000000E+00  0.000000000000E+00  0.000000000000E+00
  0.000000000000E+00  0.000000000000E+00  0.000000000000E+00  0.000000000000E+00
  0.000000000000E+00  0.000000000000E+00  0.000000000000E+00  0.000000000000E+00
  0.000000000000E+00  0.000000000000E+00  0.000000000000E+00  0.000000000000E+00
  0.000000000000E+00  0.000000000000E+00  0.000000000000E+00  0.000000000000E+00
  0.000000000000E+00  0.000000000000E+00  0.000000000000E+00  0.000000000000E+00
  0.000000000000E+00  0.000000000000E+00  0.000000000000E+00  0.000000000000E+00
  0.000000000000E+00
</data>
</radfunc>
</valence-charge>
<pseudocore-charge matching-radius="0.561329018670"
 number-of-continuous-derivatives="4">
<annotation model-charge-form="Teter function with specified parameters" />
<radfunc>
<data npts="290">
  1.103607975463E+01  1.103490718259E+01  1.103140224824E+01  1.102555573978E+01
  1.101742901114E+01  1.100674662225E+01  1.099313764144E+01  1.097756186472E+01
  1.096005836581E+01  1.093965961273E+01  1.091668363205E+01  1.089173064816E+01
  1.086160182320E+01  1.083016844690E+01  1.079313172990E+01  1.075619104512E+01
  1.071371250578E+01  1.067350642321E+01  1.062837582328E+01  1.057774161297E+01
  1.052096306347E+01  1.047064344223E+01  1.041554561706E+01  1.035524442391E+01
  1.028928285531E+01  1.021717097430E+01  1.013838511291E+01  1.007458163871E+01
  1.000646304228E+01  9.933770734805E+00  9.856235749052E+00  9.773579171566E+00
  9.685512757327E+00  9.591739756072E+00  9.491955982303E+00  9.385851164040E+00
  9.273110608281E+00  9.153417223874E+00  9.069602291528E+00  8.982462873511E+00
  8.891906600146E+00  8.797842571784E+00  8.700181884054E+00  8.598838204430E+00
  8.493728402646E+00  8.384773237365E+00  8.271898101265E+00  8.155033826405E+00
  8.034117551379E+00  7.909093651251E+00  7.779914730728E+00  7.646542680298E+00
  7.508949794240E+00  7.367119948437E+00  7.221049834803E+00  7.070750247808E+00
  6.916247417142E+00  6.757584378847E+00  6.594822375415E+00  6.428042273272E+00
  6.257345983778E+00  6.082857871462E+00  5.904726130511E+00  5.723124107776E+00
  5.538251547584E+00  5.350335730673E+00  5.159632476434E+00  5.063323516196E+00
  4.966426974717E+00  4.868983192463E+00  4.771034410476E+00  4.672624775773E+00
  4.573800341917E+00  4.474609064396E+00  4.375100790489E+00  4.275327243241E+00
  4.175341999222E+00  4.075200459687E+00  3.974959814819E+00  3.874679000683E+00
  3.774418648582E+00  3.674241026459E+00  3.574209972066E+00  3.474390817578E+00
  3.374850305394E+00  3.275656494870E+00  3.176878659764E+00  3.078587176202E+00
  2.980853401020E+00  2.883749540362E+00  2.787348508481E+00  2.691723776726E+00
  2.596949212754E+00  2.503098910085E+00  2.410247008159E+00  2.318467503146E+00
  2.227834049824E+00  2.138419754932E+00  2.050296962474E+00  1.963537031561E+00
  1.878210107453E+00  1.794384886576E+00  1.712128376370E+00  1.631505650958E+00
  1.552579603678E+00  1.475410697691E+00  1.400056715922E+00  1.326572511720E+00
  1.255009761729E+00  1.185416722540E+00  1.117837992789E+00  1.052314282449E+00
  9.888821911401E-01  9.275739973377E-01  8.684174604056E-01  8.114356374285E-01
  7.566467168223E-01  7.040638707105E-01  6.536951280298E-01  6.055432702884E-01
  5.596057518331E-01  5.158746463903E-01  4.743366215297E-01  4.349729425500E-01
  3.977595071139E-01  3.626669117558E-01  3.296605511488E-01  2.987007507593E-01
  2.697429332229E-01  2.427378184605E-01  2.176316572079E-01  1.943664972703E-01
  1.728804814282E-01  1.531081755225E-01  1.349809248394E-01  1.184272365024E-01
  1.033731851674E-01  8.974283891585E-02  7.745870185124E-02  6.644216954505E-02
  5.661399314433E-02  4.789474766425E-02  4.020529974712E-02  3.346726998538E-02
  2.760348478779E-02  2.253841272251E-02  1.819858030521E-02  1.451296231991E-02
  1.141334196921E-02  8.834636451728E-03  6.715183958481E-03  4.996988564737E-03
  3.625920066346E-03  2.551866462991E-03  1.728837516309E-03  1.115018596854E-03
  6.727748662878E-04  3.686067032579E-04  1.730581543334E-04  6.058105451330E-05
  9.358292931531E-06  1.090475659518E-06  2.075093577173E-05  5.631463861472E-05
  9.846700641495E-05  1.402990221927E-04  1.769951528202E-04  2.055206434271E-04
  2.243145735328E-04  2.329947281225E-04  2.320798293392E-04  2.227340078806E-04
  2.065375854275E-04  1.852873146299E-04  1.608282112597E-04  1.349180489609E-04
  1.091245091957E-04  8.475392841595E-05  6.280960261421E-05  4.397673630228E-05
  2.863039522970E-05  1.686227090754E-05  8.521713899526E-06  3.266356394387E-06
  6.177268174687E-07  1.755293570146E-08  8.809363430147E-07  2.643230709199E-06
  4.798229351745E-06  6.926117450042E-06  8.710518415028E-06  9.944808564912E-06
  1.052863708201E-05  1.045622241052E-05  9.798463945550E-06  8.681183260540E-06
  7.261880804634E-06  5.707266233911E-06  4.173513324814E-06  2.790738212657E-06
  1.652648775859E-06  8.117175729955E-07  2.796482031427E-07  3.239045178126E-08
  1.856063539985E-08  1.698751936873E-07  4.121265242465E-07  6.753205352674E-07
  9.018368947852E-07  1.051830139283E-06  1.105514471197E-06  1.062411867364E-06
  9.380363418872E-07  7.587879472825E-07  5.560027304653E-07  3.601319690668E-07
  1.959089457000E-07  7.912803336093E-08  1.534974797634E-08  0.000000000000E+00
  0.000000000000E+00  0.000000000000E+00  0.000000000000E+00  0.000000000000E+00
  0.000000000000E+00  0.000000000000E+00  0.000000000000E+00  0.000000000000E+00
  0.000000000000E+00  0.000000000000E+00  0.000000000000E+00  0.000000000000E+00
  0.000000000000E+00  0.000000000000E+00  0.000000000000E+00  0.000000000000E+00
  0.000000000000E+00  0.000000000000E+00  0.000000000000E+00  0.000000000000E+00
  0.000000000000E+00  0.000000000000E+00  0.000000000000E+00  0.000000000000E+00
  0.000000000000E+00  0.000000000000E+00  0.000000000000E+00  0.000000000000E+00
  0.000000000000E+00  0.000000000000E+00  0.000000000000E+00  0.000000000000E+00
  0.000000000000E+00  0.000000000000E+00  0.000000000000E+00  0.000000000000E+00
  0.000000000000E+00  0.000000000000E+00  0.000000000000E+00  0.000000000000E+00
  0.000000000000E+00  0.000000000000E+00  0.000000000000E+00  0.000000000000E+00
  0.000000000000E+00  0.000000000000E+00  0.000000000000E+00  0.000000000000E+00
  0.000000000000E+00  0.000000000000E+00  0.000000000000E+00  0.000000000000E+00
  0.000000000000E+00  0.000000000000E+00  0.000000000000E+00  0.000000000000E+00
  0.000000000000E+00  0.000000000000E+00  0.000000000000E+00  0.000000000000E+00
  0.000000000000E+00  0.000000000000E+00  0.000000000000E+00  0.000000000000E+00
  0.000000000000E+00  0.000000000000E+00  0.000000000000E+00  0.000000000000E+00
  0.000000000000E+00  0.000000000000E+00
</data>
</radfunc>
</pseudocore-charge>
<semilocal-potentials set="lj">
<slps n="2" l="s" j="0.5" rc="1.20439874552" eref="-0.501557133594">
<radfunc>
<data npts="290">
  1.465127748461E+01  1.464622086657E+01  1.463111481816E+01  1.460594561079E+01
  1.457101991331E+01  1.452521651765E+01  1.446703768921E+01  1.440068758404E+01
  1.432642571187E+01  1.424027823603E+01  1.414375607125E+01  1.403953490062E+01
  1.391452951817E+01  1.378507385133E+01  1.363378795346E+01  1.348422134332E+01
  1.331384910463E+01  1.315416198459E+01  1.297670926606E+01  1.277983932297E+01
  1.256182740202E+01  1.237100083859E+01  1.216457808990E+01  1.194162970218E+01
  1.170123578797E+01  1.144250046966E+01  1.116456865994E+01  1.094304093049E+01
  1.070995977897E+01  1.046505001140E+01  1.020807361367E+01  9.938835968177E+00
  9.657192311896E+00  9.363054355606E+00  9.056396967252E+00  8.737264805924E+00
  8.405778777262E+00  8.062142167064E+00  7.826440854357E+00  7.585575954070E+00
  7.339675549296E+00  7.088887191551E+00  6.833378306798E+00  6.573336502388E+00
  6.308969766361E+00  6.040506551315E+00  5.768195735950E+00  5.492306458532E+00
  5.213127817801E+00  4.930968438274E+00  4.646155898535E+00  4.359036022762E+00
  4.069972037619E+00  3.779343598471E+00  3.487545690849E+00  3.194987414964E+00
  2.902090662976E+00  2.609288700497E+00  2.317024665471E+00  2.025749999089E+00
  1.735922824646E+00  1.448006291350E+00  1.162466900796E+00  8.797728342922E-01
  6.003922993283E-01  3.247919131773E-01  5.343514098798E-02 -8.050828758141E-02
 -2.132191953850E-01 -3.446411858688E-01 -4.747183230904E-01 -6.033951701270E-01
 -7.306168256633E-01 -8.563289587691E-01 -9.804778418261E-01 -1.103010381546E+00
 -1.223874148097E+00 -1.343017402331E+00 -1.460389121134E+00 -1.575939020945E+00
 -1.689617579498E+00 -1.801376055863E+00 -1.911166508897E+00 -2.018941814218E+00
 -2.124655679847E+00 -2.228262660697E+00 -2.329718172103E+00 -2.428978502606E+00
 -2.526000826261E+00 -2.620743214734E+00 -2.713164649526E+00 -2.803225034635E+00
 -2.890885210076E+00 -2.976106966663E+00 -3.058853062498E+00 -3.139087241685E+00
 -3.216774255804E+00 -3.291879888719E+00 -3.364370985357E+00 -3.434215485126E+00
 -3.501382460694E+00 -3.565842162887E+00 -3.627566072508E+00 -3.686526959926E+00
 -3.742698953298E+00 -3.796057616320E+00 -3.846580036418E+00 -3.894244924282E+00
 -3.939032725604E+00 -3.980925745873E+00 -4.019908288966E+00 -4.055966810187E+00
 -4.089090084261E+00 -4.119269388606E+00 -4.146498701970E+00 -4.170774918274E+00
 -4.192098075190E+00 -4.210471596618E+00 -4.225902547901E+00 -4.238401902161E+00
 -4.247984815806E+00 -4.254670910807E+00 -4.258484560976E+00 -4.259455179162E+00
 -4.257617501916E+00 -4.253011867970E+00 -4.245684486640E+00 -4.235687692123E+00
 -4.223080179502E+00 -4.207927218184E+00 -4.190300838346E+00 -4.170279985778E+00
 -4.147950640219E+00 -4.123405891928E+00 -4.096745970613E+00 -4.068078220182E+00
 -4.037517011825E+00 -4.005183586905E+00 -3.971205819908E+00 -3.935717890396E+00
 -3.898859851564E+00 -3.860777081689E+00 -3.821619603551E+00 -3.781541255897E+00
 -3.740698700295E+00 -3.699250246377E+00 -3.657354478637E+00 -3.615168668639E+00
 -3.572846958015E+00 -3.530538299884E+00 -3.488384149708E+00 -3.446515902023E+00
 -3.405052062096E+00 -3.364095165838E+00 -3.323728716322E+00 -3.283929000221E+00
 -3.244619807159E+00 -3.205811352940E+00 -3.167505019607E+00 -3.129689202512E+00
 -3.092345976434E+00 -3.055467948484E+00 -3.019054623783E+00 -2.983101769476E+00