<?xml version="1.0" encoding="UTF-8" ?>
<psml version="1.1" energy_unit="hartree" length_unit="bohr"
 uuid="ef51d330-53a0-11e8-6fab-2eb0edf8f1eb"
 xmlns="http://esl.cecam.org/PSML/ns/1.1">
<provenance creator="ONCVPSP-3.3.0+psml-3.3.0-73 (fully-relativistic)"
 date="2018-05-09">
<annotation action="semilocal-pseudopotential-generation"
 action-cont="projectors-generation" />
<input-file name="oncvpsp-input">
<![CDATA[# atsym z nc nv iexc psfile
Br 35 5 3 -116133 upf
# n l f
1 0 2.0
2 0 2.0
2 1 6.0
3 0 2.0
3 1 6.0
3 2 10.0
4 0 2.0
4 1 5.0
# lmax
2
# l rc ep ncon nbas qcut
0 1.8 0.0 4 8 5.8
1 1.5 0.0 4 8 6.6
2 1.9 0.0 4 8 8.6
# lloc lpopt rc5 dvloc0
4 5 1.5 0.0
# l nproj debl
0 2 3.2
1 2 4.0
2 2 2.5
# icmod fcfact rcfact
3 3.5 1.5
# epsh1 epsh2 depsh
-12.0 12.0 0.02
# rlmax drl
6.0 0.01
 0
]]>
</input-file>
</provenance>
<pseudo-atom-spec atomic-label="Br" atomic-number="35" z-pseudo="17"
 flavor="Hamann&apos;s oncvpsp" relativity="dirac" spin-dft="no"
 core-corrections="yes">
<annotation pseudo-energy="-128.021288172" />
<exchange-correlation>
<annotation oncvpsp-xc-code="-116133" oncvpsp-xc-type="libxc-interface" />
<libxc-info number-of-functionals="2">
<functional name="Perdew, Burke &amp; Ernzerhof SOL (GGA)" type="exchange"
 id="116" />
<functional name="Perdew, Burke &amp; Ernzerhof SOL (GGA)" type="correlation"
 id="133" />
</libxc-info>
</exchange-correlation>
<valence-configuration total-valence-charge="17">
<shell n="3" l="d" occupation="10" />
<shell n="4" l="s" occupation="2" />
<shell n="4" l="p" occupation="5" />
</valence-configuration>
</pseudo-atom-spec>
<grid npts="457">
<annotation type="sampled from oncvpsp log grid"
 recipe="r(i:1..N) = r1*exp(a*(i-1)) + r=0; resampled"
 recipe-cont="r1: scale; a: step" scale="0.142857142857E-04"
 step="0.119285708653E-01" delta="0.500000000000E-02" rmax="44.2674114500" />
<grid-data>
  0.000000000000E+00  5.054917964046E-03  1.009680193746E-02  1.514681294670E-02
  2.016756950152E-02  2.529783174994E-02  3.061762502401E-02  3.575346707549E-02
  4.076653503389E-02  4.593131983604E-02  5.113679882137E-02  5.625713842976E-02
  6.189017883894E-02  6.727989812235E-02  7.313898224683E-02  7.856551971204E-02
  8.439467843280E-02  8.958135458679E-02  9.508679028850E-02  1.009305756658E-01
  1.071335048047E-01  1.123692191118E-01  1.178608076606E-01  1.236207752640E-01
  1.296622378566E-01  1.359989523613E-01  1.426453480144E-01  1.478424498244E-01
  1.532289014281E-01  1.588116015445E-01  1.645977002384E-01  1.705946080783E-01
  1.768100056273E-01  1.832518532800E-01  1.899284014579E-01  1.968482011761E-01
  2.040201149951E-01  2.114533283713E-01  2.165586575315E-01  2.217872497590E-01
  2.271420811171E-01  2.326261995236E-01  2.382427264849E-01  2.439948588732E-01
  2.498858707458E-01  2.559191152091E-01  2.620980263267E-01  2.684261210743E-01
  2.749070013416E-01  2.815443559820E-01  2.883419629128E-01  2.953036912653E-01
  3.024335035873E-01  3.097354580979E-01  3.172137109982E-01  3.248725188365E-01
  3.327162409313E-01  3.407493418524E-01  3.489763939620E-01  3.574020800179E-01
  3.660311958378E-01  3.748686530301E-01  3.839194817889E-01  3.931888337572E-01
  4.026819849594E-01  4.124043388043E-01  4.223614291604E-01  4.274297663103E-01
  4.325589235060E-01  4.377496305881E-01  4.430026261552E-01  4.483186576690E-01
  4.536984815610E-01  4.591428633398E-01  4.646525776999E-01  4.702284086323E-01
  4.758711495358E-01  4.815816033303E-01  4.873605825702E-01  4.932089095611E-01
  4.991274164758E-01  5.051169454735E-01  5.111783488192E-01  5.173124890050E-01
  5.235202388731E-01  5.298024817396E-01  5.361601115204E-01  5.425940328587E-01
  5.491051612530E-01  5.556944231880E-01  5.623627562663E-01  5.691111093415E-01
  5.759404426536E-01  5.828517279654E-01  5.898459487010E-01  5.969241000854E-01
  6.040871892864E-01  6.113362355579E-01  6.186722703846E-01  6.260963376292E-01
  6.336094936807E-01  6.412128076049E-01  6.489073612962E-01  6.566942496317E-01
  6.645745806273E-01  6.725494755948E-01  6.806200693020E-01  6.887875101336E-01
  6.970529602552E-01  7.054175957783E-01  7.138826069276E-01  7.224491982107E-01
  7.311185885893E-01  7.398920116523E-01  7.487707157922E-01  7.577559643817E-01
  7.668490359542E-01  7.760512243857E-01  7.853638390783E-01  7.947882051473E-01
  8.043256636090E-01  8.139775715723E-01  8.237453024312E-01  8.336302460604E-01
  8.436338090131E-01  8.537574147213E-01  8.640025036979E-01  8.743705337423E-01
  8.848629801472E-01  8.954813359090E-01  9.062271119399E-01  9.171018372832E-01
  9.281070593305E-01  9.392443440425E-01  9.505152761710E-01  9.619214594851E-01
  9.734645169989E-01  9.851460912029E-01  9.969678442973E-01  1.008931458429E+00
  1.021038635930E+00  1.033291099561E+00  1.045690592756E+00  1.058238879869E+00
  1.070937746427E+00  1.083788999385E+00  1.096794467377E+00  1.109956000986E+00
  1.123275472998E+00  1.136754778673E+00  1.150395836018E+00  1.164200586050E+00
  1.178170993082E+00  1.192309044999E+00  1.206616753539E+00  1.221096154582E+00
  1.235749308437E+00  1.250578300138E+00  1.265585239740E+00  1.280772262617E+00
  1.296141529768E+00  1.311695228125E+00  1.327435570863E+00  1.343364797713E+00
  1.359485175286E+00  1.375798997389E+00  1.392308585358E+00  1.409016288382E+00
  1.425924483843E+00  1.443035577649E+00  1.460352004580E+00  1.477876228635E+00
  1.495610743379E+00  1.513558072300E+00  1.531720769167E+00  1.550101418397E+00
  1.568702635418E+00  1.587527067043E+00  1.606577391848E+00  1.625856320550E+00
  1.645366596396E+00  1.665110995553E+00  1.685092327500E+00  1.705313435430E+00
  1.725777196655E+00  1.746486523015E+00  1.767444361291E+00  1.788653693626E+00
  1.810117537950E+00  1.831838948405E+00  1.853821015786E+00  1.876066867976E+00
  1.898579670391E+00  1.921362626436E+00  1.944418977953E+00  1.967752005689E+00
  1.991365029757E+00  2.015261410114E+00  2.039444547035E+00  2.063917881600E+00
  2.088684896179E+00  2.113749114933E+00  2.139114104312E+00  2.164783473564E+00
  2.190760875247E+00  2.217050005750E+00  2.243654605819E+00  2.270578461089E+00
  2.297825402622E+00  2.325399307453E+00  2.353304099143E+00  2.381543748332E+00
  2.410122273312E+00  2.439043740592E+00  2.468312265479E+00  2.497932012665E+00
  2.527907196817E+00  2.558242083179E+00  2.588940988177E+00  2.620008280035E+00
  2.651448379395E+00  2.683265759948E+00  2.715464949067E+00  2.748050528456E+00
  2.781027134798E+00  2.814399460415E+00  2.848172253940E+00  2.882350320988E+00
  2.916938524839E+00  2.951941787138E+00  2.987365088583E+00  3.023213469646E+00
  3.059492031282E+00  3.096205935657E+00  3.133360406885E+00  3.170960731768E+00
  3.209012260549E+00  3.247520407676E+00  3.286490652568E+00  3.325928540399E+00
  3.365839682883E+00  3.406229759078E+00  3.447104516187E+00  3.488469770381E+00
  3.530331407626E+00  3.572695384517E+00  3.615567729131E+00  3.658954541881E+00
  3.702861996384E+00  3.747296340340E+00  3.792263896424E+00  3.837771063181E+00
  3.883824315940E+00  3.930430207731E+00  3.977595370224E+00  4.025326514666E+00
  4.073630432842E+00  4.122513998036E+00  4.171984166013E+00  4.222047976005E+00
  4.272712551717E+00  4.323985102338E+00  4.375872923566E+00  4.428383398648E+00
  4.481523999432E+00  4.535302287425E+00  4.589725914875E+00  4.644802625853E+00
  4.700540257363E+00  4.756946740452E+00  4.814030101337E+00  4.871798462553E+00
  4.930260044104E+00  4.989423164633E+00  5.049296242609E+00  5.109887797520E+00
  5.171206451090E+00  5.233260928503E+00  5.296060059645E+00  5.359612780361E+00
  5.423928133725E+00  5.489015271330E+00  5.554883454586E+00  5.621542056041E+00
  5.689000560713E+00  5.757268567442E+00  5.826355790251E+00  5.896272059734E+00
  5.967027324451E+00  6.038631652345E+00  6.111095232173E+00  6.184428374959E+00
  6.258641515458E+00  6.333745213644E+00  6.409750156208E+00  6.486667158082E+00
  6.564507163979E+00  6.643281249947E+00  6.723000624946E+00  6.803676632445E+00
  6.885320752035E+00  6.967944601059E+00  7.051559936272E+00  7.136178655507E+00
  7.221812799373E+00  7.308474552966E+00  7.396176247601E+00  7.484930362573E+00
  7.574749526923E+00  7.665646521247E+00  7.757634279501E+00  7.850725890855E+00
  7.944934601546E+00  8.040273816764E+00  8.136757102565E+00  8.234398187796E+00
  8.333210966050E+00  8.433209497642E+00  8.534408011614E+00  8.636820907753E+00
  8.740462758647E+00  8.845348311750E+00  8.951492491491E+00  9.058910401389E+00
  9.167617326206E+00  9.277628734120E+00  9.388960278930E+00  9.501627802277E+00
  9.615647335904E+00  9.731035103935E+00  9.847807525182E+00  9.965981215485E+00
  1.008557299007E+01  1.020659986595E+01  1.032907906434E+01  1.045302801311E+01
  1.057846434927E+01  1.070540592146E+01  1.083387079252E+01  1.096387724203E+01
  1.109544376894E+01  1.122858909416E+01  1.136333216329E+01  1.149969214925E+01
  1.163768845504E+01  1.177734071650E+01  1.191866880510E+01  1.206169283076E+01
  1.220643314473E+01  1.235291034247E+01  1.250114526658E+01  1.265115900978E+01
  1.280297291789E+01  1.295660859291E+01  1.311208789602E+01  1.326943295078E+01
  1.342866614619E+01  1.358981013994E+01  1.375288786162E+01  1.391792251596E+01
  1.408493758615E+01  1.425395683718E+01  1.442500431923E+01  1.459810437106E+01
  1.477328162351E+01  1.495056100300E+01  1.512996773503E+01  1.531152734785E+01
  1.549526567603E+01  1.568120886414E+01  1.586938337051E+01  1.605981597095E+01
  1.625253376261E+01  1.644756416776E+01  1.664493493777E+01  1.684467415702E+01
  1.704681024691E+01  1.725137196987E+01  1.745838843351E+01  1.766788909471E+01
  1.787990376385E+01  1.809446260901E+01  1.831159616032E+01  1.853133531425E+01
  1.875371133802E+01  1.897875587407E+01  1.920650094456E+01  1.943697895590E+01
  1.967022270337E+01  1.990626537581E+01  2.014514056032E+01  2.038688224704E+01
  2.063152483401E+01  2.087910313201E+01  2.112965236960E+01  2.138320819803E+01
  2.163980669641E+01  2.189948437677E+01  2.216227818929E+01  2.242822552756E+01
  2.269736423389E+01  2.296973260470E+01  2.324536939595E+01  2.352431382871E+01
  2.380660559465E+01  2.409228486179E+01  2.438139228013E+01  2.467396898749E+01
  2.497005661534E+01  2.526969729472E+01  2.557293366226E+01  2.587980886621E+01
  2.619036657260E+01  2.650465097147E+01  2.682270678313E+01  2.714457926453E+01
  2.747031421570E+01  2.779995798629E+01  2.813355748213E+01  2.847116017191E+01
  2.881281409397E+01  2.915856786310E+01  2.950847067746E+01  2.986257232559E+01
  3.022092319350E+01  3.058357427182E+01  3.095057716308E+01  3.132198408904E+01
  3.169784789810E+01  3.207822207288E+01  3.246316073776E+01  3.285271866661E+01
  3.324695129061E+01  3.364591470610E+01  3.404966568257E+01  3.445826167076E+01
  3.487176081081E+01  3.529022194054E+01  3.571370460383E+01  3.614226905907E+01
  3.657597628778E+01  3.701488800323E+01  3.745906665927E+01  3.790857545918E+01
  3.836347836469E+01  3.882384010507E+01  3.928972618633E+01  3.976120290057E+01
  4.023833733537E+01  4.072119738340E+01  4.120985175200E+01  4.170436997302E+01
  4.220482241270E+01  4.271128028165E+01  4.322381564503E+01  4.374250143277E+01
  4.426741144996E+01
</grid-data>
</grid>
<valence-charge total-charge="17" is-unscreening-charge="yes"
 rescaled-to-z-pseudo="no">
<radfunc>
<data npts="457">
  1.042633807819E-02  1.045541094121E-02  1.054946077131E-02  1.073018243772E-02
  1.103090017443E-02  1.151378804805E-02  1.227308934757E-02  1.334028480464E-02
  1.479193344421E-02  1.682065836943E-02  1.953996517674E-02  2.301432938742E-02
  2.793226742350E-02  3.390590601013E-02  4.204853846525E-02  5.135956265835E-02
  6.353438542788E-02  7.650395193821E-02  9.273663777724E-02  1.130563500954E-01
  1.384911197911E-01  1.633722935222E-01  1.931363679607E-01  2.287288481624E-01
  2.712712201583E-01  3.220910900202E-01  3.827565868575E-01  4.358166416349E-01
  4.963440950995E-01  5.653490155767E-01  6.439671468526E-01  7.334728469763E-01
  8.352926837144E-01  9.510195270486E-01  1.082426909616E+00  1.231483340075E+00
  1.400366149538E+00  1.591474324805E+00  1.732516978937E+00  1.885441388235E+00
  2.051135155760E+00  2.230534733055E+00  2.424625304488E+00  2.634440100801E+00
  2.861059036358E+00  3.105606552937E+00  3.369248540833E+00  3.653188195869E+00
  3.958660658754E+00  4.286926271572E+00  4.639262275327E+00  5.016952763058E+00
  5.421276695610E+00  5.853493782552E+00  6.314828029768E+00  6.806448759119E+00
  7.329448915249E+00  7.884820491722E+00  8.473426934442E+00  9.095972416624E+00
  9.752967928009E+00  1.044469418353E+01  1.117116143500E+01  1.193206636546E+01
  1.272674636137E+01  1.355413159373E+01  1.441269549758E+01  1.485305512148E+01
  1.530040441867E+01  1.575440170745E+01  1.621466739792E+01  1.668078251646E+01
  1.715228728524E+01  1.762867977024E+01  1.810941461254E+01  1.859390185848E+01
  1.908150590525E+01  1.957154457946E+01  2.006328836740E+01  2.055595981609E+01
  2.104873312559E+01  2.154073395340E+01  2.203103945241E+01  2.251867856468E+01
  2.300263259326E+01  2.348183607483E+01  2.395517797552E+01  2.442150323254E+01
  2.487961466322E+01  2.532827526282E+01  2.576621091103E+01  2.619211350578E+01
  2.660464454154E+01  2.700243914660E+01  2.738411059178E+01  2.774825527982E+01
  2.809345822130E+01  2.841829899900E+01  2.872135821844E+01  2.900122443728E+01
  2.925650156100E+01  2.948581668643E+01  2.968782836863E+01  2.986123527952E+01
  3.000478522005E+01  3.011728443976E+01  3.019760721027E+01  3.024470559100E+01
  3.025761931752E+01  3.023548573468E+01  3.017754968890E+01  3.008317328586E+01
  2.995184541291E+01  2.978319091825E+01  2.957697933295E+01  2.933313301667E+01
  2.905173460372E+01  2.873303362308E+01  2.837745216504E+01  2.798558946691E+01
  2.755822529280E+01  2.709632198679E+01  2.660102508504E+01  2.607366238167E+01
  2.551574135457E+01  2.492894487122E+01  2.431512511153E+01  2.367629566382E+01
  2.301462177205E+01  2.233240873647E+01  2.163208849665E+01  2.091620445385E+01
  2.018739461982E+01  1.944837321025E+01  1.870191083237E+01  1.795081344820E+01
  1.719790032552E+01  1.644598121839E+01  1.569783304621E+01  1.495617636456E+01
  1.422365194165E+01  1.350279776985E+01  1.279602685218E+01  1.210560610779E+01
  1.143363673770E+01  1.078203638238E+01  1.015252338489E+01  9.546603447851E+00
  8.965558939551E+00  8.410441063337E+00  7.882065056989E+00  7.381008534652E+00
  6.907613024792E+00  6.461988694627E+00  6.044022186102E+00  5.653387422469E+00
  5.289559179714E+00  4.951829155508E+00  4.639324211881E+00  4.351026418518E+00
  4.085794483142E+00  3.842386125543E+00  3.619480933696E+00  3.415703235033E+00
  3.229644523756E+00  3.059885006140E+00  2.905013859548E+00  2.763647846333E+00
  2.634447979437E+00  2.516134000336E+00  2.407496499634E+00  2.307406583508E+00
  2.214823062586E+00  2.128797210770E+00  2.048474720092E+00  1.973093469413E+00
  1.901978239130E+00  1.834536880697E+00  1.770256584495E+00  1.708698168705E+00
  1.649490079102E+00  1.592321931730E+00  1.536937913263E+00  1.483130247439E+00
  1.430732903504E+00  1.379615681651E+00  1.329678769187E+00  1.280847822115E+00
  1.233069591835E+00  1.186308208540E+00  1.140542458193E+00  1.095763734425E+00
  1.051973554929E+00  1.009181022296E+00  9.674004019995E-01  9.266474999894E-01
  8.869361813768E-01  8.482778663254E-01  8.106819459018E-01  7.741555349348E-01
  7.387035030091E-01  7.043284851584E-01  6.710309127338E-01  6.388090593673E-01
  6.076591001055E-01  5.775751821979E-01  5.485495059581E-01  5.205724142026E-01
  4.936324888438E-01  4.677166532921E-01  4.428102794014E-01  4.188972977747E-01
  3.959603103291E-01  3.739807041347E-01  3.529387654540E-01  3.328137934278E-01
  3.135842123432E-01  2.952276819572E-01  2.777212052238E-01  2.610412329365E-01
  2.451637647655E-01  2.300644463785E-01  2.157186622626E-01  2.021016240170E-01
  1.891884539144E-01  1.769542635835E-01  1.653742277186E-01  1.544236527710E-01
  1.440780406157E-01  1.343131472296E-01  1.251050364500E-01  1.164301289146E-01
  1.082652463108E-01  1.005876510844E-01  9.337508177885E-02  8.660578418849E-02
  8.025853852384E-02  7.431268279201E-02  6.874813260072E-02  6.354539759496E-02
  5.868559473288E-02  5.415045860309E-02  4.992234897845E-02  4.598425579305E-02
  4.231980171951E-02  3.891324251375E-02  3.574946528409E-02  3.281398483235E-02
  3.009293820538E-02  2.757307758832E-02  2.524176166418E-02  2.308694555957E-02
  2.109716949283E-02  1.926154623826E-02  1.756974751861E-02  1.601198943748E-02
  1.457901706249E-02  1.326208827038E-02  1.205295696425E-02  1.094385577278E-02
  9.927478339705E-03  8.996961309913E-03  8.145866115364E-03  7.368160660637E-03
  6.658201003131E-03  6.010713117723E-03  5.420774829643E-03  4.883797992780E-03
  4.395510983543E-03  3.951941573092E-03  3.549400233181E-03  3.184463923240E-03
  2.853960398799E-03  2.554953073950E-03  2.284726463443E-03  2.040772223251E-03
  1.820775802083E-03  1.622603710473E-03  1.444291408702E-03  1.284031810028E-03
  1.140164391460E-03  1.011164900621E-03  8.956356441886E-04  7.922963407875E-04
  6.999755192390E-04  6.176024414767E-04  5.441995283793E-04  4.788752660716E-04
  4.208175699153E-04  3.692875833930E-04  3.236138893207E-04  2.831871112701E-04
  2.474548836891E-04  2.159171699351E-04  1.881219082514E-04  1.636609665739E-04
  1.421663879471E-04  1.233069092132E-04  1.067847365113E-04  9.233256197198E-05
  7.971080680005E-05  6.870507670854E-05  5.912381639481E-05  5.079615043305E-05
  4.356989860146E-05  3.730975426789E-05  3.189561502927E-05  2.722105534016E-05
  2.319193137888E-05  1.972510889019E-05  1.674730521274E-05  1.419403715140E-05
  1.200866679185E-05  1.014153777744E-05  8.549194980011E-06  7.193680895462E-06
  6.041902484091E-06  5.065062553538E-06  4.238150149709E-06  3.539484777335E-06
  2.950309616804E-06  2.454429237054E-06  2.037887625126E-06  1.688682660994E-06
  1.396513461072E-06  1.152557295000E-06  9.492730475635E-07  7.802284508207E-07
  6.399485504558E-07  5.237830951720E-07  4.277907485808E-07  3.486382197746E-07
  2.835125918421E-07  2.300452973574E-07  1.862463467577E-07  1.504475600119E-07
  1.212536845864E-07  9.750040401455E-08  7.821835195224E-08  6.260234708131E-08
  4.998515521610E-08  3.981516711025E-08  3.163745437060E-08  2.507773217296E-08
  1.982881673978E-08  1.563921835601E-08  1.230355762147E-08  9.654534192397E-09
  7.556213949899E-09  5.898432819455E-09  4.592143790822E-09  3.565558461941E-09
  2.760956030441E-09  2.132051430851E-09  1.641830583368E-09  1.260774771780E-09
  9.654082679928E-10  7.371137070953E-10  5.611686046189E-10  4.259639890761E-10
  3.223725694259E-10  2.432393213962E-10  1.829719934417E-10  1.372129214804E-10
  1.025768057953E-10  7.644183491858E-11  5.678381941739E-11  4.204489227976E-11
  3.102990166858E-11  2.282491750870E-11  1.673333972904E-11  1.222597061299E-11
  8.902128635476E-12  6.459463530026E-12  4.670605062362E-12  3.365160378935E-12
  2.415883018220E-12  1.728084217399E-12  1.231555243316E-12  8.744274235724E-13
  6.185220245258E-13  4.358414243763E-13  3.059313240719E-13  2.139052358423E-13
  1.489706070891E-13  1.033334407711E-13  7.138738919788E-14  4.911581256225E-14
  3.365263356547E-14  2.296112021629E-14  1.559988947568E-14  1.055315407582E-14
  7.108090546562E-15  4.766623684162E-15  3.182241248481E-15  2.114932087308E-15
  1.399192092776E-15  9.214081744265E-16  6.039437662877E-16  3.939909908494E-16
  2.557977630574E-16  1.652733600492E-16  1.062623222628E-16  6.798301115648E-17
  4.327529808403E-17  2.740765058398E-17  1.726905583900E-17  1.082437331576E-17
  6.749098430761E-18  3.606339070333E-18  2.228999077136E-18  0.000000000000E+00
  0.000000000000E+00  0.000000000000E+00  0.000000000000E+00  0.000000000000E+00
  0.000000000000E+00  0.000000000000E+00  0.000000000000E+00  0.000000000000E+00
  0.000000000000E+00  0.000000000000E+00  0.000000000000E+00  0.000000000000E+00
  0.000000000000E+00  0.000000000000E+00  0.000000000000E+00  0.000000000000E+00
  0.000000000000E+00  0.000000000000E+00  0.000000000000E+00  0.000000000000E+00
  0.000000000000E+00  0.000000000000E+00  0.000000000000E+00  0.000000000000E+00
  0.000000000000E+00  0.000000000000E+00  0.000000000000E+00  0.000000000000E+00
  0.000000000000E+00  0.000000000000E+00  0.000000000000E+00  0.000000000000E+00
  0.000000000000E+00  0.000000000000E+00  0.000000000000E+00  0.000000000000E+00
  0.000000000000E+00  0.000000000000E+00  0.000000000000E+00  0.000000000000E+00
  0.000000000000E+00  0.000000000000E+00  0.000000000000E+00  0.000000000000E+00
  0.000000000000E+00
</data>
</radfunc>
</valence-charge>
<pseudocore-charge matching-radius="0.641212807605"
 number-of-continuous-derivatives="4">
<annotation model-charge-form="Teter function with specified parameters" />
<radfunc>
<data npts="290">
  1.051521688511E+02  1.051429927878E+02  1.051155636498E+02  1.050698064269E+02
  1.050061965010E+02  1.049225708412E+02  1.048160150689E+02  1.046940325555E+02
  1.045569184110E+02  1.043970779547E+02  1.042169831116E+02  1.040213198382E+02
  1.037849713061E+02  1.035382720533E+02  1.032474420399E+02  1.029571995741E+02
  1.026232397642E+02  1.023069412638E+02  1.019516639853E+02  1.015527600447E+02
  1.011050691416E+02  1.007079673387E+02  1.002727906501E+02  9.979607360668E+01
  9.927407416652E+01  9.870276000786E+01  9.807779612533E+01  9.757108142602E+01
  9.702950154628E+01  9.645087447906E+01  9.583291502640E+01  9.517323534583E+01
  9.446934660994E+01  9.371866198465E+01  9.291850115647E+01  9.206609666544E+01
  9.115860232819E+01  9.019310406359E+01  8.951575002341E+01  8.881040833811E+01
  8.807618446670E+01  8.731218184227E+01  8.651750513184E+01  8.569126387859E+01
  8.483257655220E+01  8.394057503364E+01  8.301440956022E+01  8.205325415628E+01
  8.105631257420E+01  8.002282476842E+01  7.895207392378E+01  7.784339405605E+01
  7.669617819965E+01  7.550988719262E+01  7.428405906399E+01  7.301831902169E+01
  7.171239003187E+01  7.036610397101E+01  6.897941332198E+01  6.755240337252E+01
  6.608530486138E+01  6.457850700110E+01  6.303257078918E+01  6.144824249983E+01
  5.982646722725E+01  5.816840232788E+01  5.647543058452E+01  5.561635154046E+01
  5.474917288825E+01  5.387413640800E+01  5.299150020657E+01  5.210153903389E+01
  5.120454457728E+01  5.030082573101E+01  4.939070883866E+01  4.847453790542E+01
  4.755267477740E+01  4.662549928517E+01  4.569340934826E+01  4.475682103773E+01
  4.381616859338E+01  4.287190439253E+01  4.192449886692E+01  4.097444036446E+01
  4.002223495252E+01  3.906840615919E+01  3.811349464954E+01  3.715805783313E+01
  3.620266940001E+01  3.524791878171E+01  3.429441053440E+01  3.334276364139E+01
  3.239361073216E+01  3.144759721567E+01  3.050538032553E+01  2.956762807549E+01
  2.863501812331E+01  2.770823654222E+01  2.678797649901E+01  2.587493683867E+01
  2.496982057568E+01  2.407333329303E+01  2.318618145020E+01  2.230907060248E+01
  2.144270353426E+01  2.058777831009E+01  1.974498624786E+01  1.891500981934E+01
  1.809852048425E+01  1.729617646509E+01  1.650862047044E+01  1.573647737604E+01
  1.498035187344E+01  1.424082609725E+01  1.351845724295E+01  1.281377518820E+01
  1.212728013148E+01  1.145944026297E+01  1.081068948322E+01  1.018142518619E+01
  9.572006123655E+00  8.982750369057E+00  8.413933398776E+00  7.865786309735E+00
  7.338494192102E+00  6.832194676044E+00  6.346976671329E+00  5.882879318204E+00
  5.439891167429E+00  5.017949606523E+00  4.616940548225E+00  4.236698395856E+00
  3.877006298652E+00  3.537596708291E+00  3.218152245655E+00  2.918306884458E+00
  2.637647455671E+00  2.375715473600E+00  2.132009281542E+00  1.905986511144E+00
  1.697066846295E+00  1.504635078441E+00  1.328044436415E+00  1.166620169916E+00
  1.019663361858E+00  8.864549409471E-01  7.662598621144E-01  6.583314189032E-01
  5.619156486866E-01  4.762557887080E-01  4.005967385168E-01  3.341894824723E-01
  2.762954246994E-01  2.261905882627E-01  1.831696304596E-01  1.465496270607E-01
  1.156735801045E-01  8.991360649742E-02  6.867376820217E-02  5.139250920392E-02
  3.754466969071E-02  2.664305392538E-02  1.823953503509E-02  1.192568730105E-02
  7.332944365369E-03  4.132289930471E-03  2.033495836444E-03  7.839306677036E-04
  1.669700566804E-04  4.740044236294E-08  1.323905664533E-04  4.424961193557E-04
  8.353974466242E-04  1.239786711960E-03  1.605052664314E-03  1.898296857028E-03
  2.101389709718E-03  2.208125050553E-03  2.221527340647E-03  2.151359798038E-03
  2.011874260866E-03  1.819835073096E-03  1.592839813510E-03  1.347949640773E-03
  1.100631754393E-03  8.640063590402E-04  6.483809632223E-04  4.610462296301E-04
  3.063002824102E-04  1.856626777313E-04  9.823540305952E-05  4.116644910909E-05
  1.017176092178E-05  7.367938559891E-08  5.318180677498E-06  2.043905125933E-05
  4.044424664860E-05  6.110764079245E-05  7.915769200412E-05  9.236271795945E-05
  9.951998083252E-05  1.003621718369E-04  9.539976709599E-05  8.572082681460E-05
  7.277098236498E-05  5.813560366424E-05  4.334361566754E-05  2.970843353790E-05
  1.821642673277E-05  9.467704514863E-06  3.668383008794E-06  6.683825899732E-07
  3.468988482736E-08  1.147268528656E-06  3.303637134115E-06  5.818599068155E-06
  8.107574172030E-06  9.745148200737E-06  1.049438849425E-05  1.030665809989E-05
  9.295558957632E-06  7.691759367409E-06  5.787435392500E-06  3.879667312593E-06
  2.221362101989E-06  9.863006321635E-07  2.520862858434E-07  1.573078375789E-09
  0.000000000000E+00  0.000000000000E+00  0.000000000000E+00  0.000000000000E+00
  0.000000000000E+00  0.000000000000E+00  0.000000000000E+00  0.000000000000E+00
  0.000000000000E+00  0.000000000000E+00  0.000000000000E+00  0.000000000000E+00
  0.000000000000E+00  0.000000000000E+00  0.000000000000E+00  0.000000000000E+00
  0.000000000000E+00  0.000000000000E+00  0.000000000000E+00  0.000000000000E+00
  0.000000000000E+00  0.000000000000E+00  0.000000000000E+00  0.000000000000E+00
  0.000000000000E+00  0.000000000000E+00  0.000000000000E+00  0.000000000000E+00
  0.000000000000E+00  0.000000000000E+00  0.000000000000E+00  0.000000000000E+00
  0.000000000000E+00  0.000000000000E+00  0.000000000000E+00  0.000000000000E+00
  0.000000000000E+00  0.000000000000E+00  0.000000000000E+00  0.000000000000E+00
  0.000000000000E+00  0.000000000000E+00  0.000000000000E+00  0.000000000000E+00
  0.000000000000E+00  0.000000000000E+00  0.000000000000E+00  0.000000000000E+00
  0.000000000000E+00  0.000000000000E+00  0.000000000000E+00  0.000000000000E+00
  0.000000000000E+00  0.000000000000E+00  0.000000000000E+00  0.000000000000E+00
  0.000000000000E+00  0.000000000000E+00  0.000000000000E+00  0.000000000000E+00
  0.000000000000E+00  0.000000000000E+00
</data>
</radfunc>
</pseudocore-charge>
<semilocal-potentials set="lj">
<slps n="4" l="s" j="0.5" rc="1.81011753795" eref="-0.739668008524">
<radfunc>
<data npts="290">
  4.162776377102E+01  4.159656054002E+01  4.150345836359E+01  4.134871349658E+01
  4.113476495443E+01  4.085554853628E+01  4.050310907243E+01  4.010416593612E+01
  3.966139320318E+01  3.915263803474E+01  3.858874789559E+01  3.798703309795E+01
  3.727492947714E+01  3.654828531648E+01  3.571271387837E+01  3.490069430230E+01
  3.399228304082E+01  3.315642295913E+01  3.224474749434E+01  3.125383981608E+01
  3.018088459424E+01  2.926204330442E+01  2.828875054787E+01  2.726083786416E+01
  2.617863935526E+01  2.504304196866E+01  2.385552824368E+01  2.293206831582E+01
  2.198170865812E+01  2.100578558928E+01  2.000584121712E+01  1.898361903509E+01
  1.794105626073E+01  1.688027287753E+01  1.580355743632E+01  1.471334977209E+01
  1.361222089366E+01  1.250285040172E+01  1.176005345693E+01  1.101565487526E+01
  1.027049678618E+01  9.525425613118E+00  8.781288466137E+00  8.038929564643E+00
  7.299186727632E+00  6.562887967987E+00  5.830848225901E+00  5.103866274407E+00
  4.382721827414E+00  3.668172877615E+00  2.960953288199E+00  2.261770658565E+00
  1.571304480338E+00  8.902045959428E-01  2.190899679351E-01 -4.414522366470E-01
 -1.090867246472E+00 -1.728632973771E+00 -2.354259996299E+00 -2.967291242850E+00
 -3.567301394534E+00 -4.153896016547E+00 -4.726710437569E+00 -5.285408396267E+00
 -5.829680476855E+00 -6.359242358259E+00 -6.873832904367E+00 -7.125438161818E+00
 -7.373212125924E+00 -7.617127752248E+00 -7.857159048040E+00 -8.093281003090E+00
 -8.325469520663E+00 -8.553701348857E+00 -8.777954012732E+00 -8.998205747612E+00
 -9.214435433905E+00 -9.426622533879E+00 -9.634747030759E+00 -9.838789370602E+00
 -1.003873040737E+01 -1.023455135166E+01 -1.042623372361E+01 -1.061375931041E+01
 -1.079711012906E+01 -1.097626839488E+01 -1.115121649647E+01 -1.132193697767E+01
 -1.148841252743E+01 -1.165062597808E+01 -1.180856031316E+01 -1.196219868532E+01
 -1.211152444544E+01 -1.225652118367E+01 -1.239717278345E+01 -1.253346348918E+01
 -1.266537798851E+01 -1.279290150981E+01 -1.291601993532E+01 -1.303471993047E+01
 -1.314898908922E+01 -1.325881609538E+01 -1.336419089922E+01 -1.346510490840E+01
 -1.356155119189E+01 -1.365352469492E+01 -1.374102246272E+01 -1.382404387036E+01
 -1.390259085543E+01 -1.397666815018E+01 -1.404628350938E+01 -1.411144792997E+01
 -1.417217585864E+01 -1.422848538349E+01 -1.428039840596E+01 -1.432794079002E+01
 -1.437114248539E+01 -1.441003762246E+01 -1.444466457699E+01 -1.447506600312E+01
 -1.450128883356E+01 -1.452338424646E+01 -1.454140759840E+01 -1.455541832310E+01
 -1.456547979532E+01 -1.457165915910E+01 -1.457402711885E+01 -1.457265769120E+01
 -1.456762791464E+01 -1.455901751284E+01 -1.454690850665E+01 -1.453138476879E+01
 -1.451253151400E+01 -1.449043471729E+01 -1.446518045238E+01 -1.443685414312E+01
 -1.440553972245E+01 -1.437131869642E+01 -1.433426911615E+01 -1.429446446808E+01
 -1.425197250379E+01 -1.420685404425E+01 -1.415916181061E+01 -1.410893935193E+01
 -1.405622015949E+01 -1.400102707175E+01 -1.394337208026E+01 -1.388325663785E+01
 -1.382067253907E+01 -1.375560338353E+01 -1.368802654274E+01 -1.361791543104E+01
 -1.354524174313E+01 -1.346997718372E+01 -1.339209411253E+01 -1.331156450816E+01