<?xml version="1.0" encoding="UTF-8" ?>
<psml version="1.1" energy_unit="hartree" length_unit="bohr"
 uuid="edb6d2c0-539e-11e8-666b-5e3b637da2e9"
 xmlns="http://esl.cecam.org/PSML/ns/1.1">
<provenance creator="ONCVPSP-3.3.0+psml-3.3.0-73 (fully-relativistic)"
 date="2018-05-09">
<annotation action="semilocal-pseudopotential-generation"
 action-cont="projectors-generation" />
<input-file name="oncvpsp-input">
<![CDATA[# atsym z nc nv iexc psfile
Br 35 6 2 -116133 upf
# n l f
1 0 2.0
2 0 2.0
2 1 6.0
3 0 2.0
3 1 6.0
3 2 10.0
4 0 2.0
4 1 5.0
# lmax
2
# l rc ep ncon nbas qcut
0 1.8 0.0 4 9 5.9
1 1.5 0.0 4 8 7.4
2 1.9 0.1 4 9 7.4
# lloc lpopt rc5 dvloc0
4 5 1.5 0.0
# l nproj debl
0 2 3.2
1 2 4.0
2 2 2.5
# icmod fcfact
3 8.0 1.21
# epsh1 epsh2 depsh
-12.0 12.0 0.02
# rlmax drl
6.0 0.01
 0
]]>
</input-file>
</provenance>
<pseudo-atom-spec atomic-label="Br" atomic-number="35" z-pseudo="7"
 flavor="Hamann&apos;s oncvpsp" relativity="dirac" spin-dft="no"
 core-corrections="yes">
<annotation pseudo-energy="-13.4801285560" />
<exchange-correlation>
<annotation oncvpsp-xc-code="-116133" oncvpsp-xc-type="libxc-interface" />
<libxc-info number-of-functionals="2">
<functional name="Perdew, Burke &amp; Ernzerhof SOL (GGA)" type="exchange"
 id="116" />
<functional name="Perdew, Burke &amp; Ernzerhof SOL (GGA)" type="correlation"
 id="133" />
</libxc-info>
</exchange-correlation>
<valence-configuration total-valence-charge="7">
<shell n="4" l="s" occupation="2" />
<shell n="4" l="p" occupation="5" />
</valence-configuration>
</pseudo-atom-spec>
<grid npts="457">
<annotation type="sampled from oncvpsp log grid"
 recipe="r(i:1..N) = r1*exp(a*(i-1)) + r=0; resampled"
 recipe-cont="r1: scale; a: step" scale="0.142857142857E-04"
 step="0.119285708653E-01" delta="0.500000000000E-02" rmax="44.2674114500" />
<grid-data>
  0.000000000000E+00  5.054917964046E-03  1.009680193746E-02  1.514681294670E-02
  2.016756950152E-02  2.529783174994E-02  3.061762502401E-02  3.575346707549E-02
  4.076653503389E-02  4.593131983604E-02  5.113679882137E-02  5.625713842976E-02
  6.189017883894E-02  6.727989812235E-02  7.313898224683E-02  7.856551971204E-02
  8.439467843280E-02  8.958135458679E-02  9.508679028850E-02  1.009305756658E-01
  1.071335048047E-01  1.123692191118E-01  1.178608076606E-01  1.236207752640E-01
  1.296622378566E-01  1.359989523613E-01  1.426453480144E-01  1.478424498244E-01
  1.532289014281E-01  1.588116015445E-01  1.645977002384E-01  1.705946080783E-01
  1.768100056273E-01  1.832518532800E-01  1.899284014579E-01  1.968482011761E-01
  2.040201149951E-01  2.114533283713E-01  2.165586575315E-01  2.217872497590E-01
  2.271420811171E-01  2.326261995236E-01  2.382427264849E-01  2.439948588732E-01
  2.498858707458E-01  2.559191152091E-01  2.620980263267E-01  2.684261210743E-01
  2.749070013416E-01  2.815443559820E-01  2.883419629128E-01  2.953036912653E-01
  3.024335035873E-01  3.097354580979E-01  3.172137109982E-01  3.248725188365E-01
  3.327162409313E-01  3.407493418524E-01  3.489763939620E-01  3.574020800179E-01
  3.660311958378E-01  3.748686530301E-01  3.839194817889E-01  3.931888337572E-01
  4.026819849594E-01  4.124043388043E-01  4.223614291604E-01  4.274297663103E-01
  4.325589235060E-01  4.377496305881E-01  4.430026261552E-01  4.483186576690E-01
  4.536984815610E-01  4.591428633398E-01  4.646525776999E-01  4.702284086323E-01
  4.758711495358E-01  4.815816033303E-01  4.873605825702E-01  4.932089095611E-01
  4.991274164758E-01  5.051169454735E-01  5.111783488192E-01  5.173124890050E-01
  5.235202388731E-01  5.298024817396E-01  5.361601115204E-01  5.425940328587E-01
  5.491051612530E-01  5.556944231880E-01  5.623627562663E-01  5.691111093415E-01
  5.759404426536E-01  5.828517279654E-01  5.898459487010E-01  5.969241000854E-01
  6.040871892864E-01  6.113362355579E-01  6.186722703846E-01  6.260963376292E-01
  6.336094936807E-01  6.412128076049E-01  6.489073612962E-01  6.566942496317E-01
  6.645745806273E-01  6.725494755948E-01  6.806200693020E-01  6.887875101336E-01
  6.970529602552E-01  7.054175957783E-01  7.138826069276E-01  7.224491982107E-01
  7.311185885893E-01  7.398920116523E-01  7.487707157922E-01  7.577559643817E-01
  7.668490359542E-01  7.760512243857E-01  7.853638390783E-01  7.947882051473E-01
  8.043256636090E-01  8.139775715723E-01  8.237453024312E-01  8.336302460604E-01
  8.436338090131E-01  8.537574147213E-01  8.640025036979E-01  8.743705337423E-01
  8.848629801472E-01  8.954813359090E-01  9.062271119399E-01  9.171018372832E-01
  9.281070593305E-01  9.392443440425E-01  9.505152761710E-01  9.619214594851E-01
  9.734645169989E-01  9.851460912029E-01  9.969678442973E-01  1.008931458429E+00
  1.021038635930E+00  1.033291099561E+00  1.045690592756E+00  1.058238879869E+00
  1.070937746427E+00  1.083788999385E+00  1.096794467377E+00  1.109956000986E+00
  1.123275472998E+00  1.136754778673E+00  1.150395836018E+00  1.164200586050E+00
  1.178170993082E+00  1.192309044999E+00  1.206616753539E+00  1.221096154582E+00
  1.235749308437E+00  1.250578300138E+00  1.265585239740E+00  1.280772262617E+00
  1.296141529768E+00  1.311695228125E+00  1.327435570863E+00  1.343364797713E+00
  1.359485175286E+00  1.375798997389E+00  1.392308585358E+00  1.409016288382E+00
  1.425924483843E+00  1.443035577649E+00  1.460352004580E+00  1.477876228635E+00
  1.495610743379E+00  1.513558072300E+00  1.531720769167E+00  1.550101418397E+00
  1.568702635418E+00  1.587527067043E+00  1.606577391848E+00  1.625856320550E+00
  1.645366596396E+00  1.665110995553E+00  1.685092327500E+00  1.705313435430E+00
  1.725777196655E+00  1.746486523015E+00  1.767444361291E+00  1.788653693626E+00
  1.810117537950E+00  1.831838948405E+00  1.853821015786E+00  1.876066867976E+00
  1.898579670391E+00  1.921362626436E+00  1.944418977953E+00  1.967752005689E+00
  1.991365029757E+00  2.015261410114E+00  2.039444547035E+00  2.063917881600E+00
  2.088684896179E+00  2.113749114933E+00  2.139114104312E+00  2.164783473564E+00
  2.190760875247E+00  2.217050005750E+00  2.243654605819E+00  2.270578461089E+00
  2.297825402622E+00  2.325399307453E+00  2.353304099143E+00  2.381543748332E+00
  2.410122273312E+00  2.439043740592E+00  2.468312265479E+00  2.497932012665E+00
  2.527907196817E+00  2.558242083179E+00  2.588940988177E+00  2.620008280035E+00
  2.651448379395E+00  2.683265759948E+00  2.715464949067E+00  2.748050528456E+00
  2.781027134798E+00  2.814399460415E+00  2.848172253940E+00  2.882350320988E+00
  2.916938524839E+00  2.951941787138E+00  2.987365088583E+00  3.023213469646E+00
  3.059492031282E+00  3.096205935657E+00  3.133360406885E+00  3.170960731768E+00
  3.209012260549E+00  3.247520407676E+00  3.286490652568E+00  3.325928540399E+00
  3.365839682883E+00  3.406229759078E+00  3.447104516187E+00  3.488469770381E+00
  3.530331407626E+00  3.572695384517E+00  3.615567729131E+00  3.658954541881E+00
  3.702861996384E+00  3.747296340340E+00  3.792263896424E+00  3.837771063181E+00
  3.883824315940E+00  3.930430207731E+00  3.977595370224E+00  4.025326514666E+00
  4.073630432842E+00  4.122513998036E+00  4.171984166013E+00  4.222047976005E+00
  4.272712551717E+00  4.323985102338E+00  4.375872923566E+00  4.428383398648E+00
  4.481523999432E+00  4.535302287425E+00  4.589725914875E+00  4.644802625853E+00
  4.700540257363E+00  4.756946740452E+00  4.814030101337E+00  4.871798462553E+00
  4.930260044104E+00  4.989423164633E+00  5.049296242609E+00  5.109887797520E+00
  5.171206451090E+00  5.233260928503E+00  5.296060059645E+00  5.359612780361E+00
  5.423928133725E+00  5.489015271330E+00  5.554883454586E+00  5.621542056041E+00
  5.689000560713E+00  5.757268567442E+00  5.826355790251E+00  5.896272059734E+00
  5.967027324451E+00  6.038631652345E+00  6.111095232173E+00  6.184428374959E+00
  6.258641515458E+00  6.333745213644E+00  6.409750156208E+00  6.486667158082E+00
  6.564507163979E+00  6.643281249947E+00  6.723000624946E+00  6.803676632445E+00
  6.885320752035E+00  6.967944601059E+00  7.051559936272E+00  7.136178655507E+00
  7.221812799373E+00  7.308474552966E+00  7.396176247601E+00  7.484930362573E+00
  7.574749526923E+00  7.665646521247E+00  7.757634279501E+00  7.850725890855E+00
  7.944934601546E+00  8.040273816764E+00  8.136757102565E+00  8.234398187796E+00
  8.333210966050E+00  8.433209497642E+00  8.534408011614E+00  8.636820907753E+00
  8.740462758647E+00  8.845348311750E+00  8.951492491491E+00  9.058910401389E+00
  9.167617326206E+00  9.277628734120E+00  9.388960278930E+00  9.501627802277E+00
  9.615647335904E+00  9.731035103935E+00  9.847807525182E+00  9.965981215485E+00
  1.008557299007E+01  1.020659986595E+01  1.032907906434E+01  1.045302801311E+01
  1.057846434927E+01  1.070540592146E+01  1.083387079252E+01  1.096387724203E+01
  1.109544376894E+01  1.122858909416E+01  1.136333216329E+01  1.149969214925E+01
  1.163768845504E+01  1.177734071650E+01  1.191866880510E+01  1.206169283076E+01
  1.220643314473E+01  1.235291034247E+01  1.250114526658E+01  1.265115900978E+01
  1.280297291789E+01  1.295660859291E+01  1.311208789602E+01  1.326943295078E+01
  1.342866614619E+01  1.358981013994E+01  1.375288786162E+01  1.391792251596E+01
  1.408493758615E+01  1.425395683718E+01  1.442500431923E+01  1.459810437106E+01
  1.477328162351E+01  1.495056100300E+01  1.512996773503E+01  1.531152734785E+01
  1.549526567603E+01  1.568120886414E+01  1.586938337051E+01  1.605981597095E+01
  1.625253376261E+01  1.644756416776E+01  1.664493493777E+01  1.684467415702E+01
  1.704681024691E+01  1.725137196987E+01  1.745838843351E+01  1.766788909471E+01
  1.787990376385E+01  1.809446260901E+01  1.831159616032E+01  1.853133531425E+01
  1.875371133802E+01  1.897875587407E+01  1.920650094456E+01  1.943697895590E+01
  1.967022270337E+01  1.990626537581E+01  2.014514056032E+01  2.038688224704E+01
  2.063152483401E+01  2.087910313201E+01  2.112965236960E+01  2.138320819803E+01
  2.163980669641E+01  2.189948437677E+01  2.216227818929E+01  2.242822552756E+01
  2.269736423389E+01  2.296973260470E+01  2.324536939595E+01  2.352431382871E+01
  2.380660559465E+01  2.409228486179E+01  2.438139228013E+01  2.467396898749E+01
  2.497005661534E+01  2.526969729472E+01  2.557293366226E+01  2.587980886621E+01
  2.619036657260E+01  2.650465097147E+01  2.682270678313E+01  2.714457926453E+01
  2.747031421570E+01  2.779995798629E+01  2.813355748213E+01  2.847116017191E+01
  2.881281409397E+01  2.915856786310E+01  2.950847067746E+01  2.986257232559E+01
  3.022092319350E+01  3.058357427182E+01  3.095057716308E+01  3.132198408904E+01
  3.169784789810E+01  3.207822207288E+01  3.246316073776E+01  3.285271866661E+01
  3.324695129061E+01  3.364591470610E+01  3.404966568257E+01  3.445826167076E+01
  3.487176081081E+01  3.529022194054E+01  3.571370460383E+01  3.614226905907E+01
  3.657597628778E+01  3.701488800323E+01  3.745906665927E+01  3.790857545918E+01
  3.836347836469E+01  3.882384010507E+01  3.928972618633E+01  3.976120290057E+01
  4.023833733537E+01  4.072119738340E+01  4.120985175200E+01  4.170436997302E+01
  4.220482241270E+01  4.271128028165E+01  4.322381564503E+01  4.374250143277E+01
  4.426741144996E+01
</grid-data>
</grid>
<valence-charge total-charge="7" is-unscreening-charge="yes"
 rescaled-to-z-pseudo="no">
<radfunc>
<data npts="457">
  8.807082646112E-03  8.834087555963E-03  8.914866948063E-03  9.049810458507E-03
  9.237793527806E-03  9.485618558087E-03  9.802534886866E-03  1.016690061854E-02
  1.057846583893E-02  1.106092528723E-02  1.160798228489E-02  1.220649798494E-02
  1.293527072967E-02  1.370275537765E-02  1.461647836682E-02  1.553804465260E-02
  1.661044768886E-02  1.763805596471E-02  1.880619235220E-02  2.013537571031E-02
  2.164942616329E-02  2.301224766037E-02  2.452731084795E-02  2.621305065192E-02
  2.809037750666E-02  3.018304435060E-02  3.251807121860E-02  3.444674832132E-02
  3.654352933383E-02  3.882448550608E-02  4.130737680476E-02  4.401184052344E-02
  4.695960072733E-02  5.017470050661E-02  5.368375909559E-02  5.751625597184E-02
  6.170484406598E-02  6.628569417688E-02  6.957713089127E-02  7.307354211513E-02
  7.678875361779E-02  8.073756135853E-02  8.493579637823E-02  8.940039302113E-02
  9.414946046808E-02  9.920235752093E-02  1.045797705291E-01  1.103037942899E-01
  1.163980156867E-01  1.228875997455E-01  1.297993776998E-01  1.371619365403E-01
  1.450057094030E-01  1.533630660012E-01  1.622684021418E-01  1.717582271747E-01
  1.818712480076E-01  1.926484480713E-01  2.041331593421E-01  2.163711252118E-01
  2.294105516412E-01  2.433021436331E-01  2.580991236175E-01  2.738572278380E-01
  2.906346762824E-01  3.084921110809E-01  3.274924976272E-01  3.374415756674E-01
  3.477009819357E-01  3.582791686533E-01  3.691846969516E-01  3.804262274457E-01
  3.920125096677E-01  4.039523702809E-01  4.162546999887E-01  4.289284390531E-01
  4.419825613285E-01  4.554260567175E-01  4.692679119482E-01  4.835170895715E-01
  4.981825050707E-01  5.132730019775E-01  5.287973248793E-01  5.447640902066E-01
  5.611817546847E-01  5.780585813321E-01  5.954026028910E-01  6.132215825731E-01
  6.315229720080E-01  6.503138662831E-01  6.696009559698E-01  6.893904760379E-01
  7.096881515656E-01  7.304991401670E-01  7.518279710689E-01  7.736784807865E-01
  7.960537453645E-01  8.189560091739E-01  8.423866102790E-01  8.663459024189E-01
  8.908331736820E-01  9.158465619880E-01  9.413829675361E-01  9.674379624256E-01
  9.940056977043E-01  1.021078808160E+00  1.048648315235E+00  1.076703528497E+00
  1.105231946195E+00  1.134219155483E+00  1.163648732978E+00  1.193502146415E+00
  1.223758658228E+00  1.254395231992E+00  1.285386442714E+00  1.316704392095E+00
  1.348318629911E+00  1.380196082773E+00  1.412300991588E+00  1.444594859074E+00
  1.477036408762E+00  1.509581556916E+00  1.542183398832E+00  1.574792210948E+00
  1.607355470165E+00  1.639817891726E+00  1.672121486881E+00  1.704205641467E+00
  1.736007216353E+00  1.767460670514E+00  1.798498207276E+00  1.829049944015E+00
  1.859044105292E+00  1.888407239119E+00  1.917064455688E+00  1.944939687578E+00
  1.971955970076E+00  1.998035739929E+00  2.023101150490E+00  2.047074400944E+00
  2.069878077027E+00  2.091435500453E+00  2.111671084139E+00  2.130510690267E+00
  2.147881988263E+00  2.163714809919E+00  2.177941499157E+00  2.190497254278E+00
  2.201320461027E+00  2.210353015371E+00  2.217540635521E+00  2.222833163474E+00
  2.226184857030E+00  2.227554674016E+00  2.226906551066E+00  2.224209679903E+00
  2.219438784439E+00  2.212574402209E+00  2.203603173546E+00  2.192518141491E+00
  2.179319064664E+00  2.164012744127E+00  2.146613363695E+00  2.127142841184E+00
  2.105631185749E+00  2.082116853879E+00  2.056647093820E+00  2.029278265388E+00
  2.000076119478E+00  1.969116019225E+00  1.936483083003E+00  1.902272228464E+00
  1.866588096834E+00  1.829544837898E+00  1.791265227831E+00  1.751877479905E+00
  1.711510702346E+00  1.670293461214E+00  1.628353736501E+00  1.585817803873E+00
  1.542809516361E+00  1.499449538812E+00  1.455854619510E+00  1.412136907961E+00
  1.368403334310E+00  1.324755065639E+00  1.281287053387E+00  1.238087684447E+00
  1.195238546005E+00  1.152814450305E+00  1.110884143671E+00  1.069511377511E+00
  1.028755120156E+00  9.886694077205E-01  9.493034998151E-01  9.107019482838E-01
  8.729046989131E-01  8.359472063848E-01  7.998605625400E-01  7.646716364709E-01
  7.304032249582E-01  6.970742118287E-01  6.646997347138E-01  6.332913580590E-01
  6.028572508567E-01  5.734023679506E-01  5.449286337012E-01  5.174351268835E-01
  4.909182657648E-01  4.653719923804E-01  4.407879550996E-01  4.171556886531E-01
  3.944627908663E-01  3.726950954208E-01  3.518368400399E-01  3.318708295680E-01
  3.127785934845E-01  2.945405374670E-01  2.771360886596E-01  2.605438344311E-01
  2.447416543550E-01  2.297068453455E-01  2.154162397935E-01  2.018463166949E-01
  1.889733057671E-01  1.767732846034E-01  1.652222689486E-01  1.542962962189E-01
  1.439715024173E-01  1.342241926239E-01  1.250309052679E-01  1.163684704047E-01
  1.082140622415E-01  1.005452461686E-01  9.334002056222E-02  8.657685363434E-02
  8.023471560552E-02  7.429310648004E-02  6.873207969799E-02  6.353226193440E-02
  5.867486930715E-02  5.414172024547E-02  4.991524525871E-02  4.597849383229E-02
  4.231513866384E-02  3.890947743868E-02  3.574643233026E-02  3.281154739840E-02
  3.009098404652E-02  2.757151468884E-02  2.524051476993E-02  2.308595327180E-02
  2.109638183835E-02  1.926092264281E-02  1.756925512066E-02  1.601160168882E-02
  1.457871256975E-02  1.326184983835E-02  1.205277080802E-02  1.094371087050E-02
  9.927365902304E-03  8.996874347781E-03  8.145799085227E-03  7.368109178560E-03
  6.658161611911E-03  6.010683098876E-03  5.420752051873E-03  4.883780790188E-03
  4.395498058025E-03  3.951931916347E-03  3.549393064567E-03  3.184458640412E-03
  2.853956538612E-03  2.554950281588E-03  2.284724468121E-03  2.040770819147E-03
  1.820774833424E-03  1.622603059907E-03  1.444290988262E-03  1.284031554137E-03
  1.140164251526E-03  1.011164840888E-03  8.956356385519E-04  7.922963703663E-04
  6.999755705286E-04  6.176025049501E-04  5.441995974332E-04  4.788753362350E-04
  4.208176382586E-04  3.692876480888E-04  3.236139493200E-04  2.831871660642E-04
  2.474549331364E-04  2.159172141360E-04  1.881219474587E-04  1.636610011300E-04
  1.421664182397E-04  1.233069356456E-04  1.067847594824E-04  9.233258186401E-05
  7.971082397059E-05  6.870509148678E-05  5.912382907990E-05  5.079616129416E-05
  4.356990787883E-05  3.730976217454E-05  3.189562175304E-05  2.722106104592E-05
  2.319193621074E-05  1.972511297366E-05  1.674730865678E-05  1.419404005032E-05
  1.200866922706E-05  1.014153981904E-05  8.549196688187E-06  7.193682321802E-06
  6.041903672691E-06  5.065063542010E-06  4.238150970066E-06  3.539485456763E-06
  2.950310178339E-06  2.454429700176E-06  2.037888006270E-06  1.688682973996E-06
  1.396513717558E-06  1.152557504711E-06  9.492732186503E-07  7.802285900831E-07
  6.399486635558E-07  5.237831868135E-07  4.277908226624E-07  3.486382795199E-07
  2.835126399107E-07  2.300453359381E-07  1.862463776476E-07  1.504475846829E-07
  1.212537042412E-07  9.750041963332E-08  7.821836433188E-08  6.260235686804E-08
  4.998516293259E-08  3.981517317817E-08  3.163745912924E-08  2.507773589457E-08
  1.982881964226E-08  1.563922061326E-08  1.230355937191E-08  9.654535545873E-09
  7.556214993355E-09  5.898433621499E-09  4.592144405438E-09  3.565558931479E-09
  2.760956388026E-09  2.132051702312E-09  1.641830788784E-09  1.260774926710E-09
  9.654083844569E-10  7.371137943475E-10  5.611686697614E-10  4.259640375412E-10
  3.223726053550E-10  2.432393479353E-10  1.829720129726E-10  1.372129357996E-10
  1.025768162533E-10  7.644184252670E-11  5.678382493015E-11  4.204489625796E-11
  3.102990452744E-11  2.282491955441E-11  1.673334118650E-11  1.222597164672E-11
  8.902129365305E-12  6.459464042871E-12  4.670605420989E-12  3.365160628469E-12
  2.415883190955E-12  1.728084336335E-12  1.231555324758E-12  8.744274790212E-13
  6.185220620529E-13  4.358414496163E-13  3.059313409371E-13  2.139052470343E-13
  1.489706144622E-13  1.033334455909E-13  7.138739232254E-14  4.911581456984E-14
  3.365263484279E-14  2.296112102025E-14  1.559988997564E-14  1.055315438250E-14
  7.108090731715E-15  4.766623793853E-15  3.182241311975E-15  2.114932122985E-15
  1.399192112029E-15  9.214081842190E-16  6.039437707993E-16  3.939909925388E-16
  2.557977633338E-16  1.652733596935E-16  1.062623216879E-16  6.798301056537E-17
  4.327529756450E-17  2.740765016351E-17  1.726905551600E-17  1.082437307662E-17
  6.749098258605E-18  3.606339240735E-18  2.228999174695E-18  0.000000000000E+00
  0.000000000000E+00  0.000000000000E+00  0.000000000000E+00  0.000000000000E+00
  0.000000000000E+00  0.000000000000E+00  0.000000000000E+00  0.000000000000E+00
  0.000000000000E+00  0.000000000000E+00  0.000000000000E+00  0.000000000000E+00
  0.000000000000E+00  0.000000000000E+00  0.000000000000E+00  0.000000000000E+00
  0.000000000000E+00  0.000000000000E+00  0.000000000000E+00  0.000000000000E+00
  0.000000000000E+00  0.000000000000E+00  0.000000000000E+00  0.000000000000E+00
  0.000000000000E+00  0.000000000000E+00  0.000000000000E+00  0.000000000000E+00
  0.000000000000E+00  0.000000000000E+00  0.000000000000E+00  0.000000000000E+00
  0.000000000000E+00  0.000000000000E+00  0.000000000000E+00  0.000000000000E+00
  0.000000000000E+00  0.000000000000E+00  0.000000000000E+00  0.000000000000E+00
  0.000000000000E+00  0.000000000000E+00  0.000000000000E+00  0.000000000000E+00
  0.000000000000E+00
</data>
</radfunc>
</valence-charge>
<pseudocore-charge matching-radius="1.13675477867"
 number-of-continuous-derivatives="4">
<annotation model-charge-form="Teter function with specified parameters" />
<radfunc>
<data npts="290">
  1.869268710763E+01  1.869188947750E+01  1.868950499858E+01  1.868552655371E+01
  1.867999449538E+01  1.867271925845E+01  1.866344513336E+01  1.865282279449E+01
  1.864087570698E+01  1.862693895103E+01  1.861122393922E+01  1.859413569194E+01
  1.857347366807E+01  1.855188272550E+01  1.852639783590E+01  1.850093014555E+01
  1.847158385425E+01  1.844374733591E+01  1.841243122177E+01  1.837720726622E+01
  1.833759632243E+01  1.830239105508E+01  1.826373378835E+01  1.822129408248E+01
  1.817471155488E+01  1.812359352535E+01  1.806751255499E+01  1.802191679743E+01
  1.797305809723E+01  1.792071250197E+01  1.786464215673E+01  1.780459467179E+01
  1.774030250052E+01  1.767148233605E+01  1.759783453686E+01  1.751904259324E+01
  1.743477264871E+01  1.734467309273E+01  1.728118624090E+01  1.721483048070E+01
  1.714548814355E+01  1.707303793665E+01  1.699735495942E+01  1.691831073719E+01
  1.683577327443E+01  1.674960712959E+01  1.665967351406E+01  1.656583041799E+01
  1.646793276555E+01  1.636583260281E+01  1.625937932147E+01  1.614841992164E+01
  1.603279931750E+01  1.591236068947E+01  1.578694588699E+01  1.565639588588E+01
  1.552055130484E+01  1.537925298527E+01  1.523234263911E+01  1.507966356931E+01
  1.492106146750E+01  1.475638529351E+01  1.458548824128E+01  1.440822879546E+01
  1.422447188285E+01  1.403409012231E+01  1.383696517651E+01  1.373583985779E+01
  1.363298920798E+01  1.352840164432E+01  1.342206644142E+01  1.331397378596E+01
  1.320411483302E+01  1.309248176406E+01  1.297906784657E+01  1.286386749523E+01
  1.274687633473E+01  1.262809126402E+01  1.250751052206E+01  1.238513375500E+01
  1.226096208465E+01  1.213499817821E+01  1.200724631916E+01  1.187771247924E+01
  1.174640439128E+01  1.161333162294E+01  1.147850565105E+01  1.134193993650E+01
  1.120364999945E+01  1.106365349466E+01  1.092197028686E+01  1.077862252578E+01
  1.063363472067E+01  1.048703381407E+01  1.033884925461E+01  1.018911306836E+01
  1.003785992864E+01  9.885127223805E+00  9.730955122734E+00  9.575386637619E+00
  9.418467683654E+00  9.260247135233E+00  9.100776878223E+00  8.940111857834E+00
  8.778310121649E+00  8.615432857298E+00  8.451544424273E+00  8.286712379363E+00
  8.121007495164E+00  7.954503771106E+00  7.787278436428E+00  7.619411944528E+00
  7.450987958087E+00  7.282093324382E+00  7.112818040198E+00  6.943255205716E+00
  6.773500966818E+00  6.603654445199E+00  6.433817655720E+00  6.264095410450E+00
  6.094595208862E+00  5.925427113670E+00  5.756703611841E+00  5.588539460347E+00
  5.421051516271E+00  5.254358550927E+00  5.088581047732E+00  4.923840983622E+00
  4.760261593882E+00  4.597967120348E+00  4.437082543039E+00  4.277733295367E+00
  4.120044963180E+00  3.964142968039E+00  3.810152235219E+00  3.658196847091E+00
  3.508399682669E+00  3.360882044262E+00  3.215763272320E+00  3.073160349754E+00
  2.933187497129E+00  2.795955760358E+00  2.661572592655E+00  2.530141432704E+00
  2.401761281180E+00  2.276526277910E+00  2.154525282150E+00  2.035841458618E+00
  1.920551872059E+00  1.808727093273E+00  1.700430819666E+00  1.595719513481E+00
  1.494642060970E+00  1.397239455819E+00  1.303544510187E+00  1.213581596724E+00
  1.127366424902E+00  1.044905854950E+00  9.661977525478E-01  8.912308873254E-01
  8.199848780096E-01  7.524301868157E-01  6.885281654139E-01  6.282311544570E-01
  5.714826382744E-01  5.182174559029E-01  4.683620691493E-01  4.218348878391E-01
  3.785466518552E-01  3.384008689390E-01  3.012943066014E-01  2.671175358116E-01
  2.357555234485E-01  2.070882697984E-01  1.809914866870E-01  1.573373111457E-01
  1.359950488503E-01  1.168319409452E-01  9.971394728952E-02  8.450653865443E-02
  7.107548996857E-02  5.928766637357E-02  4.901179362261E-02  4.011920424775E-02
  3.248455094593E-02  2.598647880120E-02  2.050824827769E-02  1.593830139000E-02
  1.217076408748E-02  9.105878673179E-03  6.650361013358E-03  4.717678368334E-03
  3.228244876502E-03  2.109533032317E-03  1.296100892367E-03  7.295361945661E-04
  3.583200527221E-04  1.376143580119E-04  2.897844314270E-05  2.190573509381E-08
  2.400170543475E-05  7.937270602181E-05  1.493016929008E-04  2.211555249268E-04
  2.859744497075E-04  3.379417019859E-04  3.738603020291E-04  3.926474708534E-04
  3.948562874256E-04  3.822331462999E-04  3.573182600781E-04  3.230949280183E-04
  2.826916084968E-04  2.391390460391E-04  1.951828773648E-04  1.531503439355E-04
  1.148680411324E-04  8.162610514610E-05  5.418294167220E-05  3.280359082529E-05
  1.732414368675E-05  7.234306130459E-06  1.770256278771E-06  1.035552839094E-08
  9.670224895127E-07  3.669118452703E-06  7.230459120344E-06  1.090148330795E-05
  1.410258839539E-05  1.643909325525E-05  1.769912241760E-05  1.783683825775E-05
  1.694431273471E-05  1.521587764296E-05  1.290899700363E-05  1.030556785800E-05
  7.677103921958E-06  5.256543124770E-06  3.218519080476E-06  1.668937330587E-06
  6.436964478719E-07  1.154869679500E-07  6.872029416844E-09  2.073676398984E-07
  5.920364482297E-07  1.039194868846E-06  1.445185485141E-06  1.734731352230E-06
  1.866088935567E-06  1.830960107366E-06  1.649815570740E-06  1.363835616197E-06
  1.025022601387E-06  6.861455089501E-07  3.920374594966E-07  1.734144089808E-07
  4.388038087901E-08  2.157541768942E-10  0.000000000000E+00  0.000000000000E+00
  0.000000000000E+00  0.000000000000E+00  0.000000000000E+00  0.000000000000E+00
  0.000000000000E+00  0.000000000000E+00  0.000000000000E+00  0.000000000000E+00
  0.000000000000E+00  0.000000000000E+00  0.000000000000E+00  0.000000000000E+00
  0.000000000000E+00  0.000000000000E+00  0.000000000000E+00  0.000000000000E+00
  0.000000000000E+00  0.000000000000E+00  0.000000000000E+00  0.000000000000E+00
  0.000000000000E+00  0.000000000000E+00  0.000000000000E+00  0.000000000000E+00
  0.000000000000E+00  0.000000000000E+00  0.000000000000E+00  0.000000000000E+00
  0.000000000000E+00  0.000000000000E+00
</data>
</radfunc>
</pseudocore-charge>
<semilocal-potentials set="lj">
<slps n="4" l="s" j="0.5" rc="1.81011753795" eref="-0.739668008524">
<radfunc>
<data npts="290">
  6.132124294470E+01  6.127997038074E+01  6.115686254239E+01  6.095237372171E+01
  6.066991355608E+01  6.030174513648E+01  5.983776909049E+01  5.931357050834E+01
  5.873301971693E+01  5.806755970730E+01  5.733198263907E+01  5.654937768179E+01
  5.562627469038E+01  5.468774939270E+01  5.361279842710E+01  5.257250097081E+01
  5.141378172936E+01  5.035231572672E+01  4.919970076276E+01  4.795296295293E+01
  4.661007447637E+01  4.546590324304E+01  4.425977699434E+01  4.299248031062E+01
  4.166546936603E+01  4.028091607036E+01  3.884173877859E+01  3.772869346245E+01
  3.658880836420E+01  3.542415017128E+01  3.423701079658E+01  3.302989421724E+01
  3.180549940970E+01  3.056669953601E+01  2.931651765223E+01  2.805809932246E+01
  2.679468262603E+01  2.552956613503E+01  2.468685302507E+01  2.384584772680E+01
  2.300752941444E+01  2.217286691907E+01  2.134281435842E+01  2.051830689390E+01
  1.970025665279E+01  1.888954885080E+01  1.808703814733E+01  1.729354526196E+01
  1.650985387685E+01  1.573670784565E+01  1.497480872524E+01  1.422481364243E+01
  1.348733350336E+01  1.276293154947E+01  1.205212226002E+01  1.135537059772E+01
  1.067309159071E+01  1.000565024179E+01  9.353361753202E+00  8.716492053709E+00
  8.095258613414E+00  7.489831530923E+00  6.900334877090E+00  6.326848279677E+00
  5.769408733655E+00  5.228012622591E+00  4.702617937510E+00  4.445898091903E+00
  4.193146680697E+00  3.944348753808E+00  3.699487443021E+00  3.458544051296E+00
  3.221498144416E+00  2.988327644881E+00  2.759008928008E+00  2.533516920144E+00
  2.311825198943E+00  2.093906095612E+00  1.879730799071E+00  1.669269461922E+00
  1.462491308155E+00  1.259364742470E+00  1.059857461113E+00  8.639365641019E-01
  6.715686686830E-01  4.827200238754E-01  2.973566259042E-01  1.154443343250E-01
 -6.305101139674E-02 -2.381634751105E-01 -4.099269073031E-01 -5.783748288443E-01
 -7.435403155179E-01 -9.054558837369E-01 -1.064153377886E+00 -1.219663859773E+00
 -1.372017500719E+00 -1.521243476854E+00 -1.667369868251E+00 -1.810423562547E+00
 -1.950430163781E+00 -2.087413907201E+00 -2.221397580839E+00 -2.352402454709E+00
 -2.480448218512E+00 -2.605552928754E+00 -2.727732966242E+00 -2.847003004916E+00
 -2.963375992990E+00 -3.076863147408E+00 -3.187473962566E+00 -3.295216234263E+00
 -3.400096099786E+00 -3.502118094994E+00 -3.601285229164E+00 -3.697599078295E+00
 -3.791059897409E+00 -3.881666752270E+00 -3.969417670745E+00 -4.054309813816E+00
 -4.136339666040E+00 -4.215503244940E+00 -4.291796328541E+00 -4.365214699878E+00
 -4.435754406964E+00 -4.503412036253E+00 -4.568184997225E+00 -4.630071815203E+00
 -4.689072429043E+00 -4.745188489803E+00 -4.798423655971E+00 -4.848783880287E+00
 -4.896277682686E+00 -4.940916403386E+00 -4.982714429668E+00 -5.021689389532E+00
 -5.057862305054E+00 -5.091257698097E+00 -5.121903640917E+00 -5.149831744322E+00
 -5.175077076284E+00 -5.197678004441E+00 -5.217675956654E+00 -5.235115094856E+00
 -5.250041898779E+00 -5.262504657865E+00 -5.272552871749E+00 -5.280236562148E+00
 -5.285605501862E+00 -5.288708369799E+00 -5.289591844571E+00 -5.288299653118E+00
 -5.284871595059E+00 -5.279342567908E+00 -5.271741622847E+00 -5.262091085349E+00
 -5.250405779316E+00 -5.236692397568E+00 -5.220949064989E+00 -5.203165143449E+00