<?xml version="1.0" encoding="UTF-8" ?>
<psml version="1.1" energy_unit="hartree" length_unit="bohr"
 uuid="c7f512c0-53a0-11e8-7717-9972a5ff6d13"
 xmlns="http://esl.cecam.org/PSML/ns/1.1">
<provenance creator="ONCVPSP-3.3.0+psml-3.3.0-73 (fully-relativistic)"
 date="2018-05-09">
<annotation action="semilocal-pseudopotential-generation"
 action-cont="projectors-generation" />
<input-file name="oncvpsp-input">
<![CDATA[# atsym z nc nv iexc psfile
Cu 29 3 4 -116133 upf
# n l f
1 0 2.0
2 0 2.0
2 1 6.0
3 0 2.0
3 1 6.0
3 2 10.0
4 0 1.0
# lmax
2
# l rc ep ncon nbas qcut
0 1.2 0.0 4 8 9.6
1 1.3 0.0 4 8 10.0
2 1.6 0.0 4 7 10.0
# lloc lpopt rc5 dvloc0
4 5 1.2 0.0
# l nproj debl
0 2 1.5
1 2 1.5
2 2 2.0
# icmod fcfact
3 5 1.45
# epsh1 epsh2 depsh
-12.0 12.0 0.02
# rlmax drl
6.0 0.01
 0
]]>
</input-file>
</provenance>
<pseudo-atom-spec atomic-label="Cu" atomic-number="29" z-pseudo="19"
 flavor="Hamann&apos;s oncvpsp" relativity="dirac" spin-dft="no"
 core-corrections="yes">
<annotation pseudo-energy="-188.269287665" />
<exchange-correlation>
<annotation oncvpsp-xc-code="-116133" oncvpsp-xc-type="libxc-interface" />
<libxc-info number-of-functionals="2">
<functional name="Perdew, Burke &amp; Ernzerhof SOL (GGA)" type="exchange"
 id="116" />
<functional name="Perdew, Burke &amp; Ernzerhof SOL (GGA)" type="correlation"
 id="133" />
</libxc-info>
</exchange-correlation>
<valence-configuration total-valence-charge="19">
<shell n="3" l="s" occupation="2" />
<shell n="3" l="p" occupation="6" />
<shell n="3" l="d" occupation="10" />
<shell n="4" l="s" occupation="1" />
</valence-configuration>
</pseudo-atom-spec>
<grid npts="457">
<annotation type="sampled from oncvpsp log grid"
 recipe="r(i:1..N) = r1*exp(a*(i-1)) + r=0; resampled"
 recipe-cont="r1: scale; a: step" scale="0.172413793103E-04"
 step="0.119285708653E-01" delta="0.500000000000E-02" rmax="44.1434196577" />
<grid-data>
  0.000000000000E+00  5.040759278960E-03  1.006852107514E-02  1.510438714353E-02
  2.011108069843E-02  2.522697322451E-02  3.053186590510E-02  3.565332260536E-02
  4.114017728858E-02  4.635229949226E-02  5.160548885826E-02  5.677275850950E-02
  6.245742807768E-02  6.789654638074E-02  7.293412198510E-02  7.834545986930E-02
  8.415829127808E-02  8.933043969595E-02  9.482045482488E-02  1.006478719214E-01
  1.068334268276E-01  1.120544760441E-01  1.175306828056E-01  1.232745168994E-01
  1.292990575229E-01  1.356180230659E-01  1.422458023490E-01  1.474283472209E-01
  1.527997115230E-01  1.583667746511E-01  1.641366666430E-01  1.701167773103E-01
  1.763147657031E-01  1.827385699191E-01  1.893964172706E-01  1.962968348216E-01
  2.034486603088E-01  2.108610534604E-01  2.159520827352E-01  2.211660298207E-01
  2.265058624447E-01  2.319746199876E-01  2.375754152126E-01  2.433114360375E-01
  2.491859473491E-01  2.552022928619E-01  2.613638970208E-01  2.676742669505E-01
  2.741369944517E-01  2.807557580458E-01  2.875343250680E-01  2.944765538125E-01
  3.015863957277E-01  3.088678976662E-01  3.163252041874E-01  3.239625599173E-01
  3.317843119640E-01  3.397949123920E-01  3.479989207568E-01  3.564010066996E-01
  3.650059526053E-01  3.738186563250E-01  3.828441339633E-01  3.920875227337E-01
  4.015540838826E-01  4.112492056839E-01  4.211784065059E-01  4.262325473840E-01
  4.313473379526E-01  4.365235060080E-01  4.417617880801E-01  4.470629295371E-01
  4.524276846915E-01  4.578568169078E-01  4.633510987107E-01  4.689113118952E-01
  4.745382476380E-01  4.802327066096E-01  4.859954990890E-01  4.918274450780E-01
  4.977293744190E-01  5.037021269120E-01  5.097465524349E-01  5.158635110642E-01
  5.220538731969E-01  5.283185196753E-01  5.346583419114E-01  5.410742420143E-01
  5.475671329185E-01  5.541379385135E-01  5.607875937757E-01  5.675170449010E-01
  5.743272494398E-01  5.812191764331E-01  5.881938065503E-01  5.952521322289E-01
  6.023951578156E-01  6.096238997094E-01  6.169393865059E-01  6.243426591440E-01
  6.318347710537E-01  6.394167883064E-01  6.470897897661E-01  6.548548672432E-01
  6.627131256502E-01  6.706656831580E-01  6.787136713559E-01  6.868582354121E-01
  6.951005342371E-01  7.034417406479E-01  7.118830415357E-01  7.204256380341E-01
  7.290707456905E-01  7.378195946388E-01  7.466734297745E-01  7.556335109318E-01
  7.647011130630E-01  7.738775264197E-01  7.831640567368E-01  7.925620254176E-01
  8.020727697226E-01  8.116976429593E-01  8.214380146748E-01  8.312952708509E-01
  8.412708141011E-01  8.513660638703E-01  8.615824566368E-01  8.719214461164E-01
  8.823845034698E-01  8.929731175114E-01  9.036887949216E-01  9.145330604606E-01
  9.255074571862E-01  9.366135466724E-01  9.478529092325E-01  9.592271441432E-01
  9.707378698730E-01  9.823867243114E-01  9.941753650032E-01  1.006105469383E+00
  1.018178735016E+00  1.030396879836E+00  1.042761642394E+00  1.055274782103E+00
  1.067938079488E+00  1.080753336442E+00  1.093722376479E+00  1.106847044997E+00
  1.120129209537E+00  1.133570760051E+00  1.147173609172E+00  1.160939692482E+00
  1.174870968792E+00  1.188969420417E+00  1.203237053462E+00  1.217675898104E+00
  1.232288008881E+00  1.247075464988E+00  1.262040370567E+00  1.277184855014E+00
  1.292511073274E+00  1.308021206154E+00  1.323717460628E+00  1.339602070155E+00
  1.355677294997E+00  1.371945422537E+00  1.388408767607E+00  1.405069672819E+00
  1.421930508893E+00  1.438993674999E+00  1.456261599099E+00  1.473736738288E+00
  1.491421579148E+00  1.509318638098E+00  1.527430461755E+00  1.545759627296E+00
  1.564308742823E+00  1.583080447737E+00  1.602077413110E+00  1.621302342067E+00
  1.640757970172E+00  1.660447065814E+00  1.680372430604E+00  1.700536899771E+00
  1.720943342569E+00  1.741594662679E+00  1.762493798632E+00  1.783643724215E+00
  1.805047448906E+00  1.826708018293E+00  1.848628514512E+00  1.870812056686E+00
  1.893261801367E+00  1.915980942983E+00  1.938972714299E+00  1.962240386870E+00
  1.985787271513E+00  2.009616718771E+00  2.033732119396E+00  2.058136904829E+00
  2.082834547687E+00  2.107828562259E+00  2.133122505006E+00  2.158719975066E+00
  2.184624614767E+00  2.210840110144E+00  2.237370191466E+00  2.264218633764E+00
  2.291389257369E+00  2.318885928457E+00  2.346712559599E+00  2.374873110314E+00
  2.403371587638E+00  2.432212046689E+00  2.461398591250E+00  2.490935374345E+00
  2.520826598837E+00  2.551076518023E+00  2.581689436239E+00  2.612669709474E+00
  2.644021745988E+00  2.675750006939E+00  2.707859007023E+00  2.740353315107E+00
  2.773237554888E+00  2.806516405547E+00  2.840194602413E+00  2.874276937642E+00
  2.908768260894E+00  2.943673480025E+00  2.978997561785E+00  3.014745532527E+00
  3.050922478917E+00  3.087533548664E+00  3.124583951248E+00  3.162078958663E+00
  3.200023906167E+00  3.238424193041E+00  3.277285283357E+00  3.316612706758E+00
  3.356412059239E+00  3.396689003950E+00  3.437449271997E+00  3.478698663261E+00
  3.520443047220E+00  3.562688363787E+00  3.605440624152E+00  3.648705911642E+00
  3.692490382582E+00  3.736800267173E+00  3.781641870379E+00  3.827021572823E+00
  3.872945831697E+00  3.919421181678E+00  3.966454235858E+00  4.014051686688E+00
  4.062220306928E+00  4.110966950611E+00  4.160298554019E+00  4.210222136667E+00
  4.260744802307E+00  4.311873739935E+00  4.363616224814E+00  4.415979619512E+00
  4.468971374946E+00  4.522599031445E+00  4.576870219822E+00  4.631792662460E+00
  4.687374174410E+00  4.743622664503E+00  4.800546136477E+00  4.858152690114E+00
  4.916450522396E+00  4.975447928665E+00  5.035153303809E+00  5.095575143454E+00
  5.156722045176E+00  5.218602709718E+00  5.281225942234E+00  5.344600653541E+00
  5.408735861384E+00  5.473640691720E+00  5.539324380021E+00  5.605796272581E+00
  5.673065827852E+00  5.741142617786E+00  5.810036329200E+00  5.879756765150E+00
  5.950313846332E+00  6.021717612488E+00  6.093978223838E+00  6.167105962524E+00
  6.241111234074E+00  6.316004568883E+00  6.391796623710E+00  6.468498183194E+00
  6.546120161393E+00  6.624673603329E+00  6.704169686569E+00  6.784619722808E+00
  6.866035159482E+00  6.948427581396E+00  7.031808712372E+00  7.116190416921E+00
  7.201584701924E+00  7.288003718347E+00  7.375459762967E+00  7.463965280123E+00
  7.553532863484E+00  7.644175257846E+00  7.735905360940E+00  7.828736225271E+00
  7.922681059975E+00  8.017753232694E+00  8.113966271487E+00  8.211333866745E+00
  8.309869873145E+00  8.409588311623E+00  8.510503371363E+00  8.612629411819E+00
  8.715980964761E+00  8.820572736338E+00  8.926419609174E+00  9.033536644484E+00
  9.141939084218E+00  9.251642353229E+00  9.362662061467E+00  9.475014006205E+00
  9.588714174279E+00  9.703778744371E+00  9.820224089303E+00  9.938066778375E+00
  1.005732357972E+01  1.017801146267E+01  1.030014760022E+01  1.042374937143E+01
  1.054883436388E+01  1.067542037625E+01  1.080352542077E+01  1.093316772581E+01
  1.106436573852E+01  1.119713812739E+01  1.133150378492E+01  1.146748183033E+01
  1.160509161230E+01  1.174435271165E+01  1.188528494419E+01  1.202790836352E+01
  1.217224326388E+01  1.231831018304E+01  1.246612990524E+01  1.261572346410E+01
  1.276711214567E+01  1.292031749142E+01  1.307536130132E+01  1.323226563693E+01
  1.339105282458E+01  1.355174545847E+01  1.371436640397E+01  1.387893880082E+01
  1.404548606643E+01  1.421403189923E+01  1.438460028202E+01  1.455721548540E+01
  1.473190207123E+01  1.490868489608E+01  1.508758911484E+01  1.526864018421E+01
  1.545186386642E+01  1.563728623282E+01  1.582493366762E+01  1.601483287163E+01
  1.620701086609E+01  1.640149499648E+01  1.659831293644E+01  1.679749269167E+01
  1.699906260397E+01  1.720305135522E+01  1.740948797149E+01  1.761840182714E+01
  1.782982264907E+01  1.804378052086E+01  1.826030588711E+01  1.847942955775E+01
  1.870118271245E+01  1.892559690500E+01  1.915270406786E+01  1.938253651667E+01
  1.961512695487E+01  1.985050847833E+01  2.008871458007E+01  2.032977915503E+01
  2.057373650489E+01  2.082062134295E+01  2.107046879906E+01  2.132331442465E+01
  2.157919419775E+01  2.183814452812E+01  2.210020226246E+01  2.236540468961E+01
  2.263378954588E+01  2.290539502043E+01  2.318025976068E+01  2.345842287781E+01
  2.373992395234E+01  2.402480303977E+01  2.431310067625E+01  2.460485788436E+01
  2.490011617897E+01  2.519891757312E+01  2.550130458400E+01  2.580732023901E+01
  2.611700808187E+01  2.643041217886E+01  2.674757712500E+01  2.706854805050E+01
  2.739337062711E+01  2.772209107463E+01  2.805475616753E+01  2.839141324154E+01
  2.873211020044E+01  2.907689552284E+01  2.942581826912E+01  2.977892808835E+01
  3.013627522541E+01  3.049791052811E+01  3.086388545445E+01  3.123425207990E+01
  3.160906310486E+01  3.198837186212E+01  3.237223232447E+01  3.276069911236E+01
  3.315382750171E+01  3.355167343173E+01  3.395429351291E+01  3.436174503506E+01
  3.477408597549E+01  3.519137500719E+01  3.561367150728E+01  3.604103556537E+01
  3.647352799215E+01  3.691121032806E+01  3.735414485199E+01  3.780239459022E+01
  3.825602332530E+01  3.871509560520E+01  3.917967675246E+01  3.964983287349E+01
  4.012563086798E+01  4.060713843839E+01  4.109442409965E+01  4.158755718885E+01
  4.208660787511E+01  4.259164716962E+01  4.310274693565E+01  4.361997989888E+01
  4.414341965767E+01
</grid-data>
</grid>
<valence-charge total-charge="19" is-unscreening-charge="yes"
 rescaled-to-z-pseudo="no">
<radfunc>
<data npts="457">
  1.804742603534E+01  1.805770496820E+01  1.808842687954E+01  1.813966420262E+01
  1.821086554480E+01  1.830442382597E+01  1.842355728802E+01  1.855983015912E+01
  1.872885756696E+01  1.891133150387E+01  1.911666744757E+01  1.933943932729E+01
  1.960809378300E+01  1.988799722332E+01  2.016691822617E+01  2.048733036012E+01
  2.085514548646E+01  2.120265353690E+01  2.159198400544E+01  2.202784501676E+01
  2.251538372758E+01  2.294637056094E+01  2.341708495838E+01  2.393079137549E+01
  2.449093383608E+01  2.510112398743E+01  2.576512207636E+01  2.630076322459E+01
  2.687052239142E+01  2.747608357088E+01  2.811913031331E+01  2.880132780141E+01
  2.952430123637E+01  3.028961000631E+01  3.109871705999E+01  3.195295286260E+01
  3.285347326890E+01  3.380121061733E+01  3.445960274550E+01  3.513938837540E+01
  3.584060131038E+01  3.656318771079E+01  3.730699495779E+01  3.807175963860E+01
  3.885709463254E+01  3.966247528674E+01  4.048722468205E+01  4.133049800415E+01
  4.219126605240E+01  4.306829794027E+01  4.396014306636E+01  4.486511246446E+01
  4.578125967574E+01  4.670636132570E+01  4.763789763348E+01  4.857303313255E+01
  4.950859793831E+01  5.044106996095E+01  5.136655853070E+01  5.228078997564E+01
  5.317909577039E+01  5.405640395455E+01  5.490723460165E+01  5.572570019996E+01
  5.650551188265E+01  5.723999251297E+01  5.792209768519E+01  5.824121485611E+01
  5.854444573851E+01  5.883082151035E+01  5.909935789303E+01  5.934905703527E+01
  5.957890959594E+01  5.978789703298E+01  5.997499410456E+01  6.013917158814E+01
  6.027939922198E+01  6.039464887268E+01  6.048389793102E+01  6.054613293711E+01
  6.058035343414E+01  6.058557604847E+01  6.056083879175E+01  6.050520557862E+01
  6.041777095159E+01  6.029766500167E+01  6.014405847133E+01  5.995616802297E+01
  5.973326165356E+01  5.947466423265E+01  5.917976313792E+01  5.884801395898E+01
  5.847894623662E+01  5.807216920146E+01  5.762737747203E+01  5.714435666923E+01
  5.662298890054E+01  5.606325806395E+01  5.546525491875E+01  5.482918186735E+01
  5.415535738967E+01  5.344422006983E+01  5.269633215298E+01  5.191238256914E+01
  5.109318936053E+01  5.023970144903E+01  4.935299968173E+01  4.843429709444E+01
  4.748493833581E+01  4.650639819926E+01  4.550027921435E+01  4.446830825615E+01
  4.341233213812E+01  4.233431216306E+01  4.123631761613E+01  4.012051819537E+01
  3.898917538690E+01  3.784463280531E+01  3.668930553362E+01  3.552566851212E+01
  3.435624404044E+01  3.318358847302E+01  3.201027820382E+01  3.083889505140E+01
  2.967201117067E+01  2.851217363131E+01  2.736188881605E+01  2.622360680262E+01
  2.509970590284E+01  2.399247753863E+01  2.290411163907E+01  2.183668274355E+01
  2.079213699373E+01  1.977228019125E+01  1.877876708881E+01  1.781309206905E+01
  1.687658134889E+01  1.597038682677E+01  1.509548166698E+01  1.425265768855E+01
  1.344252459802E+01  1.266551107443E+01  1.192186768382E+01  1.121167156808E+01
  1.053483282217E+01  9.891102442730E+00  9.280081703898E+00  8.701232790337E+00
  8.153890496473E+00  7.637274783681E+00  7.150503975135E+00  6.692608361196E+00
  6.262543987116E+00  5.859206399350E+00  5.481444136978E+00  5.128072083399E+00
  4.797885351042E+00  4.489672823886E+00  4.202226999057E+00  3.934352885162E+00
  3.684875790908E+00  3.452648046097E+00  3.236554225286E+00  3.035513834005E+00
  2.848482746997E+00  2.674457735916E+00  2.512480215579E+00  2.361639385898E+00
  2.221074757001E+00  2.089978098202E+00  1.967594847672E+00  1.853225013961E+00
  1.746223593777E+00  1.646000523245E+00  1.552020173133E+00  1.463800392800E+00
  1.380911103611E+00  1.302972440634E+00  1.229652442018E+00  1.160662369312E+00
  1.095744141137E+00  1.034653672688E+00  9.771604089921E-01  9.230466488999E-01
  8.721070039883E-01  8.241478610260E-01  7.789868502113E-01  7.364523211571E-01
  6.963828283564E-01  6.586266276376E-01  6.230411849046E-01  5.894926982587E-01
  5.578556344129E-01  5.280122801345E-01  4.998523092947E-01  4.732723659545E-01
  4.481756637827E-01  4.244716019796E-01  4.020753977709E-01  3.809077354340E-01
  3.608944317351E-01  3.419661175756E-01  3.240579355767E-01  3.071092532774E-01
  2.910633915642E-01  2.758673679144E-01  2.614716539965E-01  2.478299471447E-01
  2.348989552013E-01  2.226381942071E-01  2.110097984056E-01  1.999783420234E-01
  1.895106722854E-01  1.795757531257E-01  1.701445190577E-01  1.611897386795E-01
  1.526858872944E-01  1.446090281429E-01  1.369367017559E-01  1.296478229512E-01
  1.227225850172E-01  1.161423706384E-01  1.098896691430E-01  1.039479996636E-01
  9.830183982756E-02  9.293655960795E-02  8.783835998711E-02  8.299421610249E-02
  7.839182456336E-02  7.401955464467E-02  6.986640308191E-02  6.592195220783E-02
  6.217633118840E-02  5.862018013089E-02  5.524461685269E-02  5.204120611329E-02
  4.900193112641E-02  4.611916718186E-02  4.338565721963E-02  4.079448921025E-02
  3.833907520668E-02  3.601313194355E-02  3.381066286912E-02  3.172594150462E-02
  2.975349603395E-02  2.788809503449E-02  2.612473426671E-02  2.445862444526E-02
  2.288517993055E-02  2.140000825676E-02  1.999890045577E-02  1.867782211026E-02
  1.743290508520E-02  1.626043988757E-02  1.515686860670E-02  1.411877839008E-02
  1.314289541106E-02  1.222607928690E-02  1.136531790700E-02  1.055772263293E-02
  9.800523833292E-03  9.091066718084E-03  8.426807438986E-03  7.805309423888E-03
  7.224239915818E-03  6.681366688618E-03  6.174554913926E-03  5.701764156318E-03
  5.261045475866E-03  4.850538619789E-03  4.468469287279E-03  4.113146453994E-03
  3.782959744967E-03  3.476376846928E-03  3.191940953066E-03  2.928268235153E-03
  2.684045339711E-03  2.458026906397E-03  2.249033108146E-03  2.055947213748E-03
  1.877713174457E-03  1.713333237026E-03  1.561865586094E-03  1.422422019288E-03
  1.294165658641E-03  1.176308702054E-03  1.068110218499E-03  9.688739905765E-04
  8.779464078071E-04  7.947144137703E-04  7.186035098673E-04  6.490758180954E-04
  5.856282048159E-04  5.277904670682E-04  4.751235825524E-04  4.272180239787E-04
  3.836921380752E-04  3.441905891620E-04  3.083828668495E-04  2.759618571052E-04
  2.466424756549E-04  2.201603624578E-04  1.962706357971E-04  1.747467043852E-04
  1.553791357673E-04  1.379745792362E-04  1.223547414287E-04  1.083554127568E-04
  9.582554284211E-05  8.462636314147E-05  7.463055499954E-05  6.572146141098E-05
  5.779234083278E-05  5.074566144613E-05  4.449243432580E-05  3.895158403149E-05
  3.404935518803E-05  2.971875366890E-05  2.589902103957E-05  2.253514095381E-05
  1.957737622758E-05  1.698083534009E-05  1.470506713979E-05  1.271368254168E-05
  1.097400200033E-05  9.456727716905E-06  8.135639502244E-06  6.987309218509E-06
  5.990855863772E-06  5.127662459112E-06  4.381217202459E-06  3.736876498455E-06
  3.181668563153E-06  2.704124678156E-06  2.294138466174E-06  1.942798340463E-06
  1.642264560691E-06  1.385663982515E-06  1.166982383725E-06  9.809667080324E-07
  8.230377526715E-07  6.892115931134E-07  5.760290851982E-07  4.804927549693E-07
  4.000104283016E-07  3.323449936645E-07  2.755697318081E-07  2.280286856008E-07
  1.883015814882E-07  1.551728509405E-07  1.276043356592E-07  1.047112941361E-07
  8.574135930565E-08  7.005612745418E-08  5.711508721419E-08  4.646162436216E-08
  3.771086326071E-08  3.053912916250E-08  2.467483725925E-08  1.989063436210E-08
  1.599663749837E-08  1.283463056961E-08  1.027309561067E-08  8.202969194687E-09
  6.534027227309E-09  5.191812844977E-09  4.115032461230E-09  3.253354273368E-09
  2.565551830680E-09  2.017942652153E-09  1.583078493955E-09  1.238649310234E-09
  9.194336644267E-10  7.161373085683E-10  5.562652832681E-10  4.308874205887E-10
  3.328343382467E-10  2.563663018779E-10  1.969010838246E-10  1.507909515905E-10
  1.151404479205E-10  8.765793826690E-11  6.653502666888E-11  5.034890163953E-11
  3.798349087280E-11  2.856599651981E-11  2.141596835146E-11  1.600456528840E-11
  1.192206970844E-11  8.852065178713E-12  6.550976880783E-12  4.831913757206E-12
  3.551949887745E-12  2.602146333732E-12  1.899749278509E-12  1.382110533687E-12
  1.001966456654E-12  7.237844950721E-13  5.209458614532E-13  3.735807032096E-13
  2.669106295465E-13  1.899843035780E-13  1.347164327825E-13  9.516007376512E-14
  6.695768080225E-14  4.692856979413E-14  3.276009207557E-14  2.277734656495E-14
  1.577213382356E-14  1.087641856018E-14  7.469096554004E-15  5.107580738795E-15
  3.477806778265E-15  2.357851602522E-15  1.591570172472E-15  1.069573513061E-15
  7.155631287100E-16  4.765564991008E-16  3.159267088443E-16  2.084682320581E-16
  1.369149321430E-16  8.949414939436E-17  5.821656518217E-17  3.768612837747E-17
  2.427582972271E-17  1.555960442040E-17  9.922678358418E-18  6.295624823030E-18
  3.973760393598E-18  2.495114353302E-18  1.558396169729E-18  9.681358398582E-19
  5.981880906479E-19  3.675817605630E-19  2.246240262165E-19  1.364946087764E-19
  8.247122031993E-20  4.954355279298E-20  2.958964003511E-20  0.000000000000E+00
  0.000000000000E+00  0.000000000000E+00  0.000000000000E+00  0.000000000000E+00
  0.000000000000E+00  0.000000000000E+00  0.000000000000E+00  0.000000000000E+00
  0.000000000000E+00  0.000000000000E+00  0.000000000000E+00  0.000000000000E+00
  0.000000000000E+00  0.000000000000E+00  0.000000000000E+00  0.000000000000E+00
  0.000000000000E+00
</data>
</radfunc>
</valence-charge>
<pseudocore-charge matching-radius="0.369386024037"
 number-of-continuous-derivatives="4">
<annotation model-charge-form="Teter function with specified parameters" />
<radfunc>
<data npts="290">
  2.836222642763E+02  2.835429058619E+02  2.833057725753E+02  2.829104718888E+02
  2.823615309227E+02  2.816409032279E+02  2.807243985816E+02  2.796775682495E+02
  2.783813866151E+02  2.769849016251E+02  2.754169364656E+02  2.737199943909E+02
  2.716793014195E+02  2.695598395242E+02  2.674545798001E+02  2.650444615152E+02
  2.622887064244E+02  2.596957930382E+02  2.568031287052E+02  2.535801247760E+02
  2.499941583267E+02  2.468409371403E+02  2.434149896711E+02  2.396974150985E+02
  2.356689873202E+02  2.313103900173E+02  2.266025130309E+02  2.228312054459E+02
  2.188455118684E+02  2.146384079294E+02  2.102034533277E+02  2.055349496204E+02
  2.006281161537E+02  1.954792844319E+02  1.900861107710E+02  1.844478065085E+02
  1.785653843126E+02  1.724419182413E+02  1.682282595345E+02  1.639120533765E+02
  1.594960855869E+02  1.549837295816E+02  1.503789814034E+02  1.456864931986E+02
  1.409116044819E+02  1.360603704540E+02  1.311395865591E+02  1.261568083899E+02
  1.211203659772E+02  1.160393714346E+02  1.109237188703E+02  1.057840754401E+02
  1.006318623895E+02  9.547922493362E+01  9.033898985267E+01  8.522460974650E+01
  8.015009299339E+01  7.512991861266E+01  7.017893543400E+01  6.531224523900E+01
  6.054506986543E+01  5.589260265457E+01  5.136984507768E+01  4.699142989761E+01
  4.277143279975E+01  3.872317505415E+01  3.485902043343E+01  3.299953319373E+01
  3.119017028894E+01  2.943211707118E+01  2.772646135601E+01  2.607418762455E+01
  2.447617148563E+01  2.293317444729E+01  2.144583904770E+01  2.001468439643E+01
  1.864010217714E+01  1.732235316250E+01  1.606156429111E+01  1.485772635515E+01
  1.371069234493E+01  1.262017649418E+01  1.158575406614E+01  1.060686191660E+01
  9.682799864880E+00  8.812732898185E+00  7.995694228249E+00  7.230589212050E+00
  6.516200140459E+00  5.851191890136E+00  5.234118424861E+00  4.663430122776E+00
  4.137481895969E+00  3.654542058382E+00  3.212801887481E+00  2.810385814500E+00
  2.445362167641E+00  2.115754382447E+00  1.819552584011E+00  1.554725436768E+00
  1.319232149738E+00  1.111034518329E+00  9.281088784451E-01  7.684578448988E-01
  6.301217041691E-01  5.111893315637E-01  4.098085050146E-01  3.241954921524E-01
  2.526437940721E-01  1.935319383501E-01  1.453302253846E-01  1.066063459413E-01
  7.602980374662E-02  5.237509489591E-02  3.452361544339E-02  2.146428949809E-02
  1.229293204541E-02  6.210383097201E-03  2.519472124243E-03  6.208934917844E-04
  8.094217067254E-06  2.612942043504E-04  1.040775600053E-03  2.079591489141E-03
  3.175854313984E-03  4.184770701500E-03  5.010591491635E-03  5.598643444788E-03
  5.927602278157E-03  6.002155402851E-03  5.846187228867E-03  5.496600564156E-03
  4.997865012709E-03  4.397358085020E-03  3.741537819629E-03  3.072958033529E-03
  2.428109904420E-03  1.836047504146E-03  1.317731200693E-03  8.860025093786E-04
  5.460878660872E-04  2.965176085952E-04  1.303406600784E-04  3.651522898927E-05
  1.361205646102E-06  9.970487290603E-06  4.748654982307E-05  1.001832907648E-04
  1.562943576052E-04  2.065665522029E-04  2.445330864571E-04  2.665230843935E-04
  2.714415091991E-04  2.603675629957E-04  2.360287639815E-04  2.022118996725E-04
  1.631708288833E-04  1.230850093597E-04  8.561240248109E-05  5.356712648257E-05
  2.873721893654E-05  1.184258517781E-05  2.619109676200E-06  3.309960091480E-09
  2.383862892921E-06  7.882492941948E-06  1.462728559566E-05  2.098619475958E-05
  2.573661002214E-05  2.815721916586E-05  2.803967585347E-05  2.562831202390E-05
  2.150496921042E-05  1.644188937712E-05  1.124785311866E-05  6.631245549702E-06
  3.098870078702E-06  9.020019901981E-07  3.261403939794E-08  0.000000000000E+00
  0.000000000000E+00  0.000000000000E+00  0.000000000000E+00  0.000000000000E+00
  0.000000000000E+00  0.000000000000E+00  0.000000000000E+00  0.000000000000E+00
  0.000000000000E+00  0.000000000000E+00  0.000000000000E+00  0.000000000000E+00
  0.000000000000E+00  0.000000000000E+00  0.000000000000E+00  0.000000000000E+00
  0.000000000000E+00  0.000000000000E+00  0.000000000000E+00  0.000000000000E+00
  0.000000000000E+00  0.000000000000E+00  0.000000000000E+00  0.000000000000E+00
  0.000000000000E+00  0.000000000000E+00  0.000000000000E+00  0.000000000000E+00
  0.000000000000E+00  0.000000000000E+00  0.000000000000E+00  0.000000000000E+00
  0.000000000000E+00  0.000000000000E+00  0.000000000000E+00  0.000000000000E+00
  0.000000000000E+00  0.000000000000E+00  0.000000000000E+00  0.000000000000E+00
  0.000000000000E+00  0.000000000000E+00  0.000000000000E+00  0.000000000000E+00
  0.000000000000E+00  0.000000000000E+00  0.000000000000E+00  0.000000000000E+00
  0.000000000000E+00  0.000000000000E+00  0.000000000000E+00  0.000000000000E+00
  0.000000000000E+00  0.000000000000E+00  0.000000000000E+00  0.000000000000E+00
  0.000000000000E+00  0.000000000000E+00  0.000000000000E+00  0.000000000000E+00
  0.000000000000E+00  0.000000000000E+00  0.000000000000E+00  0.000000000000E+00
  0.000000000000E+00  0.000000000000E+00  0.000000000000E+00  0.000000000000E+00
  0.000000000000E+00  0.000000000000E+00  0.000000000000E+00  0.000000000000E+00
  0.000000000000E+00  0.000000000000E+00  0.000000000000E+00  0.000000000000E+00
  0.000000000000E+00  0.000000000000E+00  0.000000000000E+00  0.000000000000E+00
  0.000000000000E+00  0.000000000000E+00  0.000000000000E+00  0.000000000000E+00
  0.000000000000E+00  0.000000000000E+00  0.000000000000E+00  0.000000000000E+00
  0.000000000000E+00  0.000000000000E+00  0.000000000000E+00  0.000000000000E+00
  0.000000000000E+00  0.000000000000E+00  0.000000000000E+00  0.000000000000E+00
  0.000000000000E+00  0.000000000000E+00  0.000000000000E+00  0.000000000000E+00
  0.000000000000E+00  0.000000000000E+00  0.000000000000E+00  0.000000000000E+00
  0.000000000000E+00  0.000000000000E+00  0.000000000000E+00  0.000000000000E+00
  0.000000000000E+00  0.000000000000E+00
</data>
</radfunc>
</pseudocore-charge>
<semilocal-potentials set="lj">
<slps n="3" l="s" j="0.5" rc="1.20323705346" eref="-4.20315901015">
<radfunc>
<data npts="290">
 -2.822408782044E+01 -2.822440086123E+01 -2.822533524506E+01 -2.822689375557E+01
 -2.822906021866E+01 -2.823190821945E+01 -2.823553683696E+01 -2.823969030798E+01
 -2.824484618192E+01 -2.825041714063E+01 -2.825669199023E+01 -2.826350647790E+01
 -2.827173351060E+01 -2.828031498008E+01 -2.828887586438E+01 -2.829872123215E+01
 -2.831003659050E+01 -2.832073929427E+01 -2.833274261765E+01 -2.834619443676E+01
 -2.836125607208E+01 -2.837458146392E+01 -2.838914427024E+01 -2.840504496446E+01
 -2.842238834615E+01 -2.844128257889E+01 -2.846183780304E+01 -2.847841060002E+01
 -2.849602542773E+01 -2.851472639900E+01 -2.853455508331E+01 -2.855554933353E+01
 -2.857774187002E+01 -2.860115858209E+01 -2.862581650195E+01 -2.865172139995E+01
 -2.867886494384E+01 -2.870722135787E+01 -2.872677718759E+01 -2.874683149932E+01
 -2.876735835202E+01 -2.878832526990E+01 -2.880969241780E+01 -2.883141169529E+01
 -2.885342574374E+01 -2.887566686049E+01 -2.889805581429E+01 -2.892050055697E+01
 -2.894289482674E+01 -2.896511663917E+01 -2.898702666535E+01 -2.900846649698E+01
 -2.902925680406E+01 -2.904919539531E+01 -2.906805519912E+01 -2.908558219410E+01
 -2.910149333247E+01 -2.911547451955E+01 -2.912717873836E+01 -2.913622444122E+01
 -2.914219436934E+01 -2.914463500519E+01 -2.914305690467E+01 -2.913693618545E+01
 -2.912571744618E+01 -2.910881833331E+01 -2.908563582721E+01 -2.907149610851E+01
 -2.905555406581E+01 -2.903773215944E+01 -2.901795316064E+01 -2.899614040905E+01
 -2.897221803814E+01 -2.894611115658E+01 -2.891774597467E+01 -2.888704986683E+01
 -2.885395136446E+01 -2.881838007790E+01 -2.878026655078E+01 -2.873954205578E+01
 -2.869613834562E+01 -2.864998737756E+01 -2.860102103301E+01 -2.854917085465E+01
 -2.849436782347E+01 -2.843654219512E+01 -2.837562341115E+01 -2.831154009504E+01
 -2.824422013732E+01 -2.817359086851E+01 -2.809957931332E+01 -2.802211251629E+01
 -2.794111792639E+01 -2.785652382713E+01 -2.776825979873E+01 -2.767625719962E+01
 -2.758044965548E+01 -2.748077354479E+01 -2.737716847057E+01 -2.726957770790E+01
 -2.715794861659E+01 -2.704223300781E+01 -2.692238745306E+01 -2.679837352401E+01
 -2.667015795228E+01 -2.653771270000E+01 -2.640101493452E+01 -2.626004690425E+01
 -2.611479571682E+01 -2.596525302530E+01 -2.581141463308E+01 -2.565328003180E+01
 -2.549085189075E+01 -2.532413551833E+01 -2.515313831793E+01 -2.497786926107E+01
 -2.479833840051E+01 -2.461455644527E+01 -2.442653441868E+01 -2.423428341969E+01
 -2.403781450763E+01 -2.383713873067E+01 -2.363226731955E+01 -2.342321207006E+01
 -2.320998594037E+01 -2.299260389293E+01 -2.277108401393E+01 -2.254544894763E+01
 -2.231572768640E+01 -2.208195776039E+01 -2.184418787349E+01 -2.160248103273E+01
 -2.135691821824E+01 -2.110760263756E+01 -2.085466460283E+01 -2.059826706062E+01
 -2.033861179150E+01 -2.007594627963E+01 -1.981057123070E+01 -1.954284868917E+01
 -1.927321067256E+01 -1.900216820130E+01 -1.873032055738E+01 -1.845836455452E+01
 -1.818710354787E+01 -1.791745585461E+01 -1.765046220040E+01 -1.738729175628E+01
 -1.712924628973E+01 -1.687776193094E+01 -1.663440805745E+01 -1.640088284552E+01
 -1.617900500903E+01 -1.597070157466E+01 -1.577799349192E+01 -1.559474040702E+01