<?xml version="1.0" encoding="UTF-8" ?>
<psml version="1.1" energy_unit="hartree" length_unit="bohr"
 uuid="c1a69c60-539e-11e8-68fd-64d9bbff86bb"
 xmlns="http://esl.cecam.org/PSML/ns/1.1">
<provenance creator="ONCVPSP-3.3.0+psml-3.3.0-73 (fully-relativistic)"
 date="2018-05-09">
<annotation action="semilocal-pseudopotential-generation"
 action-cont="projectors-generation" />
<input-file name="oncvpsp-input">
<![CDATA[# atsym z nc nv iexc psfile
Cu 29 3 4 -116133 upf
# n l f
1 0 2.0
2 0 2.0
2 1 6.0
3 0 2.0
3 1 6.0
3 2 10.0
4 0 1.0
# lmax
2
# l rc ep ncon nbas qcut
0 1.25 0.0 4 8 9.0
1 1.45 0.0 4 8 9.5
2 1.75 0.0 4 7 9.5
# lloc lpopt rc5 dvloc0
4 5 1.2 0.0
# l nproj debl
0 2 1.5
1 2 1.5
2 2 2.0
# icmod fcfact rcfact
3 3.5 1.65
# epsh1 epsh2 depsh
-12.0 12.0 0.02
# rlmax drl
6.0 0.01
 0
]]>
</input-file>
</provenance>
<pseudo-atom-spec atomic-label="Cu" atomic-number="29" z-pseudo="19"
 flavor="Hamann&apos;s oncvpsp" relativity="dirac" spin-dft="no"
 core-corrections="yes">
<annotation pseudo-energy="-185.265589269" />
<exchange-correlation>
<annotation oncvpsp-xc-code="-116133" oncvpsp-xc-type="libxc-interface" />
<libxc-info number-of-functionals="2">
<functional name="Perdew, Burke &amp; Ernzerhof SOL (GGA)" type="exchange"
 id="116" />
<functional name="Perdew, Burke &amp; Ernzerhof SOL (GGA)" type="correlation"
 id="133" />
</libxc-info>
</exchange-correlation>
<valence-configuration total-valence-charge="19">
<shell n="3" l="s" occupation="2" />
<shell n="3" l="p" occupation="6" />
<shell n="3" l="d" occupation="10" />
<shell n="4" l="s" occupation="1" />
</valence-configuration>
</pseudo-atom-spec>
<grid npts="457">
<annotation type="sampled from oncvpsp log grid"
 recipe="r(i:1..N) = r1*exp(a*(i-1)) + r=0; resampled"
 recipe-cont="r1: scale; a: step" scale="0.172413793103E-04"
 step="0.119285708653E-01" delta="0.500000000000E-02" rmax="44.1434196577" />
<grid-data>
  0.000000000000E+00  5.040759278960E-03  1.006852107514E-02  1.510438714353E-02
  2.011108069843E-02  2.522697322451E-02  3.053186590510E-02  3.565332260536E-02
  4.114017728858E-02  4.635229949226E-02  5.160548885826E-02  5.677275850950E-02
  6.245742807768E-02  6.789654638074E-02  7.293412198510E-02  7.834545986930E-02
  8.415829127808E-02  8.933043969595E-02  9.482045482488E-02  1.006478719214E-01
  1.068334268276E-01  1.120544760441E-01  1.175306828056E-01  1.232745168994E-01
  1.292990575229E-01  1.356180230659E-01  1.422458023490E-01  1.474283472209E-01
  1.527997115230E-01  1.583667746511E-01  1.641366666430E-01  1.701167773103E-01
  1.763147657031E-01  1.827385699191E-01  1.893964172706E-01  1.962968348216E-01
  2.034486603088E-01  2.108610534604E-01  2.159520827352E-01  2.211660298207E-01
  2.265058624447E-01  2.319746199876E-01  2.375754152126E-01  2.433114360375E-01
  2.491859473491E-01  2.552022928619E-01  2.613638970208E-01  2.676742669505E-01
  2.741369944517E-01  2.807557580458E-01  2.875343250680E-01  2.944765538125E-01
  3.015863957277E-01  3.088678976662E-01  3.163252041874E-01  3.239625599173E-01
  3.317843119640E-01  3.397949123920E-01  3.479989207568E-01  3.564010066996E-01
  3.650059526053E-01  3.738186563250E-01  3.828441339633E-01  3.920875227337E-01
  4.015540838826E-01  4.112492056839E-01  4.211784065059E-01  4.262325473840E-01
  4.313473379526E-01  4.365235060080E-01  4.417617880801E-01  4.470629295371E-01
  4.524276846915E-01  4.578568169078E-01  4.633510987107E-01  4.689113118952E-01
  4.745382476380E-01  4.802327066096E-01  4.859954990890E-01  4.918274450780E-01
  4.977293744190E-01  5.037021269120E-01  5.097465524349E-01  5.158635110642E-01
  5.220538731969E-01  5.283185196753E-01  5.346583419114E-01  5.410742420143E-01
  5.475671329185E-01  5.541379385135E-01  5.607875937757E-01  5.675170449010E-01
  5.743272494398E-01  5.812191764331E-01  5.881938065503E-01  5.952521322289E-01
  6.023951578156E-01  6.096238997094E-01  6.169393865059E-01  6.243426591440E-01
  6.318347710537E-01  6.394167883064E-01  6.470897897661E-01  6.548548672432E-01
  6.627131256502E-01  6.706656831580E-01  6.787136713559E-01  6.868582354121E-01
  6.951005342371E-01  7.034417406479E-01  7.118830415357E-01  7.204256380341E-01
  7.290707456905E-01  7.378195946388E-01  7.466734297745E-01  7.556335109318E-01
  7.647011130630E-01  7.738775264197E-01  7.831640567368E-01  7.925620254176E-01
  8.020727697226E-01  8.116976429593E-01  8.214380146748E-01  8.312952708509E-01
  8.412708141011E-01  8.513660638703E-01  8.615824566368E-01  8.719214461164E-01
  8.823845034698E-01  8.929731175114E-01  9.036887949216E-01  9.145330604606E-01
  9.255074571862E-01  9.366135466724E-01  9.478529092325E-01  9.592271441432E-01
  9.707378698730E-01  9.823867243114E-01  9.941753650032E-01  1.006105469383E+00
  1.018178735016E+00  1.030396879836E+00  1.042761642394E+00  1.055274782103E+00
  1.067938079488E+00  1.080753336442E+00  1.093722376479E+00  1.106847044997E+00
  1.120129209537E+00  1.133570760051E+00  1.147173609172E+00  1.160939692482E+00
  1.174870968792E+00  1.188969420417E+00  1.203237053462E+00  1.217675898104E+00
  1.232288008881E+00  1.247075464988E+00  1.262040370567E+00  1.277184855014E+00
  1.292511073274E+00  1.308021206154E+00  1.323717460628E+00  1.339602070155E+00
  1.355677294997E+00  1.371945422537E+00  1.388408767607E+00  1.405069672819E+00
  1.421930508893E+00  1.438993674999E+00  1.456261599099E+00  1.473736738288E+00
  1.491421579148E+00  1.509318638098E+00  1.527430461755E+00  1.545759627296E+00
  1.564308742823E+00  1.583080447737E+00  1.602077413110E+00  1.621302342067E+00
  1.640757970172E+00  1.660447065814E+00  1.680372430604E+00  1.700536899771E+00
  1.720943342569E+00  1.741594662679E+00  1.762493798632E+00  1.783643724215E+00
  1.805047448906E+00  1.826708018293E+00  1.848628514512E+00  1.870812056686E+00
  1.893261801367E+00  1.915980942983E+00  1.938972714299E+00  1.962240386870E+00
  1.985787271513E+00  2.009616718771E+00  2.033732119396E+00  2.058136904829E+00
  2.082834547687E+00  2.107828562259E+00  2.133122505006E+00  2.158719975066E+00
  2.184624614767E+00  2.210840110144E+00  2.237370191466E+00  2.264218633764E+00
  2.291389257369E+00  2.318885928457E+00  2.346712559599E+00  2.374873110314E+00
  2.403371587638E+00  2.432212046689E+00  2.461398591250E+00  2.490935374345E+00
  2.520826598837E+00  2.551076518023E+00  2.581689436239E+00  2.612669709474E+00
  2.644021745988E+00  2.675750006939E+00  2.707859007023E+00  2.740353315107E+00
  2.773237554888E+00  2.806516405547E+00  2.840194602413E+00  2.874276937642E+00
  2.908768260894E+00  2.943673480025E+00  2.978997561785E+00  3.014745532527E+00
  3.050922478917E+00  3.087533548664E+00  3.124583951248E+00  3.162078958663E+00
  3.200023906167E+00  3.238424193041E+00  3.277285283357E+00  3.316612706758E+00
  3.356412059239E+00  3.396689003950E+00  3.437449271997E+00  3.478698663261E+00
  3.520443047220E+00  3.562688363787E+00  3.605440624152E+00  3.648705911642E+00
  3.692490382582E+00  3.736800267173E+00  3.781641870379E+00  3.827021572823E+00
  3.872945831697E+00  3.919421181678E+00  3.966454235858E+00  4.014051686688E+00
  4.062220306928E+00  4.110966950611E+00  4.160298554019E+00  4.210222136667E+00
  4.260744802307E+00  4.311873739935E+00  4.363616224814E+00  4.415979619512E+00
  4.468971374946E+00  4.522599031445E+00  4.576870219822E+00  4.631792662460E+00
  4.687374174410E+00  4.743622664503E+00  4.800546136477E+00  4.858152690114E+00
  4.916450522396E+00  4.975447928665E+00  5.035153303809E+00  5.095575143454E+00
  5.156722045176E+00  5.218602709718E+00  5.281225942234E+00  5.344600653541E+00
  5.408735861384E+00  5.473640691720E+00  5.539324380021E+00  5.605796272581E+00
  5.673065827852E+00  5.741142617786E+00  5.810036329200E+00  5.879756765150E+00
  5.950313846332E+00  6.021717612488E+00  6.093978223838E+00  6.167105962524E+00
  6.241111234074E+00  6.316004568883E+00  6.391796623710E+00  6.468498183194E+00
  6.546120161393E+00  6.624673603329E+00  6.704169686569E+00  6.784619722808E+00
  6.866035159482E+00  6.948427581396E+00  7.031808712372E+00  7.116190416921E+00
  7.201584701924E+00  7.288003718347E+00  7.375459762967E+00  7.463965280123E+00
  7.553532863484E+00  7.644175257846E+00  7.735905360940E+00  7.828736225271E+00
  7.922681059975E+00  8.017753232694E+00  8.113966271487E+00  8.211333866745E+00
  8.309869873145E+00  8.409588311623E+00  8.510503371363E+00  8.612629411819E+00
  8.715980964761E+00  8.820572736338E+00  8.926419609174E+00  9.033536644484E+00
  9.141939084218E+00  9.251642353229E+00  9.362662061467E+00  9.475014006205E+00
  9.588714174279E+00  9.703778744371E+00  9.820224089303E+00  9.938066778375E+00
  1.005732357972E+01  1.017801146267E+01  1.030014760022E+01  1.042374937143E+01
  1.054883436388E+01  1.067542037625E+01  1.080352542077E+01  1.093316772581E+01
  1.106436573852E+01  1.119713812739E+01  1.133150378492E+01  1.146748183033E+01
  1.160509161230E+01  1.174435271165E+01  1.188528494419E+01  1.202790836352E+01
  1.217224326388E+01  1.231831018304E+01  1.246612990524E+01  1.261572346410E+01
  1.276711214567E+01  1.292031749142E+01  1.307536130132E+01  1.323226563693E+01
  1.339105282458E+01  1.355174545847E+01  1.371436640397E+01  1.387893880082E+01
  1.404548606643E+01  1.421403189923E+01  1.438460028202E+01  1.455721548540E+01
  1.473190207123E+01  1.490868489608E+01  1.508758911484E+01  1.526864018421E+01
  1.545186386642E+01  1.563728623282E+01  1.582493366762E+01  1.601483287163E+01
  1.620701086609E+01  1.640149499648E+01  1.659831293644E+01  1.679749269167E+01
  1.699906260397E+01  1.720305135522E+01  1.740948797149E+01  1.761840182714E+01
  1.782982264907E+01  1.804378052086E+01  1.826030588711E+01  1.847942955775E+01
  1.870118271245E+01  1.892559690500E+01  1.915270406786E+01  1.938253651667E+01
  1.961512695487E+01  1.985050847833E+01  2.008871458007E+01  2.032977915503E+01
  2.057373650489E+01  2.082062134295E+01  2.107046879906E+01  2.132331442465E+01
  2.157919419775E+01  2.183814452812E+01  2.210020226246E+01  2.236540468961E+01
  2.263378954588E+01  2.290539502043E+01  2.318025976068E+01  2.345842287781E+01
  2.373992395234E+01  2.402480303977E+01  2.431310067625E+01  2.460485788436E+01
  2.490011617897E+01  2.519891757312E+01  2.550130458400E+01  2.580732023901E+01
  2.611700808187E+01  2.643041217886E+01  2.674757712500E+01  2.706854805050E+01
  2.739337062711E+01  2.772209107463E+01  2.805475616753E+01  2.839141324154E+01
  2.873211020044E+01  2.907689552284E+01  2.942581826912E+01  2.977892808835E+01
  3.013627522541E+01  3.049791052811E+01  3.086388545445E+01  3.123425207990E+01
  3.160906310486E+01  3.198837186212E+01  3.237223232447E+01  3.276069911236E+01
  3.315382750171E+01  3.355167343173E+01  3.395429351291E+01  3.436174503506E+01
  3.477408597549E+01  3.519137500719E+01  3.561367150728E+01  3.604103556537E+01
  3.647352799215E+01  3.691121032806E+01  3.735414485199E+01  3.780239459022E+01
  3.825602332530E+01  3.871509560520E+01  3.917967675246E+01  3.964983287349E+01
  4.012563086798E+01  4.060713843839E+01  4.109442409965E+01  4.158755718885E+01
  4.208660787511E+01  4.259164716962E+01  4.310274693565E+01  4.361997989888E+01
  4.414341965767E+01
</grid-data>
</grid>
<valence-charge total-charge="19" is-unscreening-charge="yes"
 rescaled-to-z-pseudo="no">
<radfunc>
<data npts="457">
  2.041202751914E+01  2.042029405644E+01  2.044500074515E+01  2.048620432652E+01
  2.054345891083E+01  2.061868506034E+01  2.071446503316E+01  2.082401084171E+01
  2.095986676413E+01  2.110650525886E+01  2.127148504160E+01  2.145043720026E+01
  2.166619631711E+01  2.189093157067E+01  2.211481975728E+01  2.237194169369E+01
  2.266701098166E+01  2.294570022994E+01  2.325782821844E+01  2.360713506599E+01
  2.399770415435E+01  2.434283747452E+01  2.471964636657E+01  2.513070984625E+01
  2.557874505696E+01  2.606659735549E+01  2.659722491809E+01  2.702509829885E+01
  2.748005658971E+01  2.796341986147E+01  2.847650674200E+01  2.902062063776E+01
  2.959703321974E+01  3.020696480041E+01  3.085156119595E+01  3.153186663803E+01
  3.224879227251E+01  3.300307976187E+01  3.352696668681E+01  3.406779528544E+01
  3.462560292302E+01  3.520036141754E+01  3.579196888191E+01  3.640024093756E+01
  3.702490128348E+01  3.766557161045E+01  3.832176085728E+01  3.899285381478E+01
  3.967809909347E+01  4.037659648446E+01  4.108728375749E+01  4.180892295859E+01
  4.254008629037E+01  4.327914168212E+01  4.402423818465E+01  4.477329135580E+01
  4.552396883789E+01  4.627367636757E+01  4.701954450143E+01  4.775841638781E+01
  4.848683696586E+01  4.920104402627E+01  4.989696162429E+01  5.057019639255E+01
  5.121603735837E+01  5.182945992517E+01  5.240513472831E+01  5.267707139337E+01
  5.293744211883E+01  5.318550251789E+01  5.342049306177E+01  5.364164014013E+01
  5.384815725326E+01  5.403924634171E+01  5.421409925956E+01  5.437189939661E+01
  5.451182345473E+01  5.463304338318E+01  5.473472847705E+01  5.481604764233E+01
  5.487617183069E+01  5.491427664575E+01  5.492954512207E+01  5.492117067691E+01
  5.488836023346E+01  5.483033751328E+01  5.474634649381E+01  5.463565502570E+01
  5.449755860260E+01  5.433138427455E+01  5.413649469384E+01  5.391229228047E+01
  5.365822349178E+01  5.337378317883E+01  5.305851900949E+01  5.271203593589E+01
  5.233400068118E+01  5.192414621808E+01  5.148227620920E+01  5.100826937630E+01
  5.050208376334E+01  4.996376085578E+01  4.939342951602E+01  4.879130969314E+01
  4.815771586283E+01  4.749306015208E+01  4.679785510164E+01  4.607271601866E+01
  4.531836287116E+01  4.453562167627E+01  4.372542533471E+01  4.288881386521E+01
  4.202693399460E+01  4.114103806194E+01  4.023248219839E+01  3.930272374915E+01
  3.835331790855E+01  3.738591354569E+01  3.640224820480E+01  3.540414227234E+01
  3.439349231134E+01  3.337226357319E+01  3.234248170688E+01  3.130622369683E+01
  3.026560807151E+01  2.922278443686E+01  2.817992240046E+01  2.713919996423E+01
  2.610279147545E+01  2.507285523672E+01  2.405152088685E+01  2.304087667369E+01
  2.204295674889E+01  2.105972862133E+01  2.009308091135E+01  1.914481155091E+01
  1.821661657592E+01  1.731007965534E+01  1.642666249734E+01  1.556769626605E+01
  1.473437413233E+01  1.392774506958E+01  1.314870899009E+01  1.239801329960E+01
  1.167625092745E+01  1.098385986733E+01  1.032112424018E+01  9.688176865659E+00
  9.085003303283E+00  8.511447299339E+00  7.967217550952E+00  7.451895675834E+00
  6.964945255278E+00  6.505721799753E+00  6.073483471546E+00  5.667402387771E+00
  5.286576319978E+00  4.930040603857E+00  4.596780074298E+00  4.285741080574E+00
  3.995844035458E+00  3.725995779929E+00  3.475099273610E+00  3.242062610514E+00
  3.025807182652E+00  2.825274977056E+00  2.639434952932E+00  2.467288482576E+00
  2.307873859022E+00  2.160269893824E+00  2.023598646486E+00  1.897027000574E+00
  1.779766268644E+00  1.671070835615E+00  1.570239417390E+00  1.476615766196E+00
  1.389588959121E+00  1.308593286683E+00  1.233107786284E+00  1.162655461429E+00
  1.096802223299E+00  1.035155587067E+00  9.773631513935E-01  9.231108858551E-01
  8.721212477544E-01  8.241511467427E-01  7.789897728861E-01  7.364550903326E-01
  6.963855279529E-01  6.586292548430E-01  6.230437374827E-01  5.894951744946E-01
  5.578580330617E-01  5.280146003745E-01  4.998545506839E-01  4.732745283903E-01
  4.481777474652E-01  4.244736073778E-01  4.020773255911E-01  3.809095865917E-01
  3.608962073288E-01  3.419678188626E-01  3.240595639520E-01  3.071108102535E-01
  2.910648787531E-01  2.758687870114E-01  2.614730067656E-01  2.478312354047E-01
  2.349001808144E-01  2.226393590673E-01  2.110109044295E-01  1.999793911413E-01
  1.895116664332E-01  1.795766942379E-01  1.701454090613E-01  1.611905794884E-01
  1.526866808042E-01  1.446097762268E-01  1.369374062606E-01  1.296484856938E-01
  1.227232077819E-01  1.161429551743E-01  1.098902171615E-01  1.039485128369E-01
  9.830231978678E-02  9.293700794202E-02  8.783877824154E-02  8.299460577857E-02
  7.839218711749E-02  7.401989148787E-02  6.986671557951E-02  6.592224167933E-02
  6.217659890741E-02  5.862042732525E-02  5.524484470467E-02  5.204141575993E-02
  4.900212365991E-02  4.611934365009E-02  4.338581862671E-02  4.079463651716E-02
  3.833920933203E-02  3.601325376431E-02  3.381077322146E-02  3.172604118476E-02
  2.975358579910E-02  2.788817560378E-02  2.612480632216E-02  2.445868863284E-02
  2.288523686116E-02  2.140005850734E-02  1.999894457032E-02  1.867786060098E-02
  1.743293843358E-02  1.626046854547E-02  1.515689299749E-02  1.411879890977E-02
  1.314291242938E-02  1.222609314841E-02  1.136532893223E-02  1.055773111945E-02
  9.800530056808E-03  9.091070933475E-03  8.426809881385E-03  7.805310309707E-03
  7.224239443757E-03  6.681365040655E-03  6.174552256281E-03  5.701760640391E-03
  5.261041239147E-03  4.850533786739E-03  4.468463970181E-03  4.113140753771E-03
  3.782953751972E-03  3.476370641702E-03  3.191934607055E-03  2.928261811403E-03
  2.684038893522E-03  2.458020485950E-03  2.249026755094E-03  2.055940963773E-03
  1.877707057801E-03  1.713327278984E-03  1.561859807485E-03  1.422416436888E-03
  1.294160285595E-03  1.176303548254E-03  1.068105290940E-03  9.688692936859E-04
  8.779419437470E-04  7.947101827201E-04  7.185995102823E-04  6.490720469442E-04
  5.856246577983E-04  5.277871388139E-04  4.751204668013E-04  4.272151137455E-04
  3.836894257970E-04  3.441880668314E-04  3.083805261343E-04  2.759596894542E-04
  2.466404723925E-04  2.201585148664E-04  1.962689351900E-04  1.747451421691E-04
  1.553777034963E-04  1.379732686577E-04  1.223535445212E-04  1.083543217616E-04
  9.582455028844E-05  8.462546186583E-05  7.462973816032E-05  6.572072249831E-05
  5.779167367446E-05  5.074506020991E-05  4.449189351859E-05  3.895109849584E-05
  3.404892009630E-05  2.971836451542E-05  2.589867363119E-05  2.253483139911E-05
  1.957710092496E-05  1.698059096512E-05  1.470485063186E-05  1.271349109037E-05
  1.097383303149E-05  9.456578878648E-06  8.135508651110E-06  6.987194405793E-06
  5.990755321911E-06  5.127574589156E-06  4.381140560925E-06  3.736809785220E-06
  3.181610610055E-06  2.704074438131E-06  2.294095002691E-06  1.942760818032E-06
  1.642232235863E-06  1.385636195250E-06  1.166958549361E-06  9.809463098687E-07
  8.230203351135E-07  6.891967553669E-07  5.760164754873E-07  4.804820652510E-07
  4.000013894502E-07  3.323373710979E-07  2.755633215282E-07  2.280233106180E-07
  1.882970886047E-07  1.551691078627E-07  1.276012284149E-07  1.047087247700E-07
  8.573924382895E-08  7.005439402637E-08  5.711367453440E-08  4.646048025040E-08
  3.770994340989E-08  3.053839604391E-08  2.467425916512E-08  1.989018457058E-08
  1.599629354715E-08  1.283437362594E-08  1.027290992640E-08  8.202841636231E-09
  6.533946871321E-09  5.191770631559E-09  4.115020897296E-09  3.253367179634E-09
  2.565584126304E-09  2.017990172916E-09  1.583137792735E-09  1.238717709797E-09
  9.666445694967E-10  7.522960730359E-10  5.838815388155E-10  4.519193120452E-10
  3.488054567340E-10  2.684587803444E-10  2.060295122877E-10  1.576608653977E-10
  1.151348610712E-10  8.765362763959E-11  6.653171077139E-11  5.034635871307E-11
  3.798154675146E-11  2.856451484005E-11  2.141484268145E-11  1.600371282109E-11
  1.192142622381E-11  8.851581032983E-12  6.550613823627E-12  4.831642414528E-12
  3.551747777446E-12  2.601996306943E-12  1.899638299260E-12  1.382028726833E-12
  1.001906367700E-12  7.237405167627E-13  5.209137911567E-13  3.735574024871E-13
  2.668937632811E-13  1.899721408071E-13  1.347076952087E-13  9.515382096780E-14
  6.695322359119E-14  4.692540505925E-14  3.275785399128E-14  2.277577018849E-14
  1.577102804793E-14  1.087564609917E-14  7.468559191637E-15  5.107208503594E-15
  3.477550031336E-15  2.357675279693E-15  1.591449612019E-15  1.069491445498E-15
  7.155075145282E-16  4.765189824855E-16  3.159015168656E-16  2.084513945584E-16
  1.369037314349E-16  8.948673387651E-17  5.821167932356E-17  3.768292492207E-17
  2.427373970717E-17  1.555824764567E-17  9.921802028919E-18  6.295061701289E-18
  3.973400407483E-18  2.494885429535E-18  1.558251362429E-18  9.680447317785E-19
  5.981310791719E-19  3.675462809905E-19  2.246020690363E-19  1.364810965199E-19
  8.246295227197E-20  4.953852274502E-20  2.958659771196E-20  0.000000000000E+00
  0.000000000000E+00  0.000000000000E+00  0.000000000000E+00  0.000000000000E+00
  0.000000000000E+00  0.000000000000E+00  0.000000000000E+00  0.000000000000E+00
  0.000000000000E+00  0.000000000000E+00  0.000000000000E+00  0.000000000000E+00
  0.000000000000E+00  0.000000000000E+00  0.000000000000E+00  0.000000000000E+00
  0.000000000000E+00
</data>
</radfunc>
</valence-charge>
<pseudocore-charge matching-radius="0.373818656325"
 number-of-continuous-derivatives="4">
<annotation model-charge-form="Teter function with specified parameters" />
<radfunc>
<data npts="290">
  1.837609467403E+02  1.837221739573E+02  1.836063009335E+02  1.834130911752E+02
  1.831446840153E+02  1.827921473012E+02  1.823434856709E+02  1.818306118662E+02
  1.811949598804E+02  1.805093549187E+02  1.797386113180E+02  1.789033273642E+02
  1.778972557259E+02  1.768505033212E+02  1.758088833106E+02  1.746141017316E+02
  1.732448967881E+02  1.719535632164E+02  1.705094248962E+02  1.688959300668E+02
  1.670951437451E+02  1.655067282964E+02  1.637755937079E+02  1.618907011644E+02
  1.598405321544E+02  1.576131537178E+02  1.551963084347E+02  1.532518434744E+02
  1.511885094309E+02  1.490010488171E+02  1.466842841077E+02  1.442331788687E+02
  1.416429083024E+02  1.389089399408E+02  1.360271251548E+02  1.329938020354E+02
  1.298059100475E+02  1.264611166309E+02  1.241433227649E+02  1.217549324343E+02
  1.192959770780E+02  1.167667312903E+02  1.141677352699E+02  1.114998178544E+02
  1.087641199678E+02  1.059621182741E+02  1.030956487921E+02  1.001669301829E+02
  9.717858637715E+01  9.413366816133E+01  9.103567329337E+01  8.788856466649E+01
  8.469678598974E+01  8.146527440405E+01  7.819946940544E+01  7.490531740465E+01
  7.158927121706E+01  6.825828375003E+01  6.491979514136E+01  6.158171260371E+01
  5.825238225069E+01  5.494055222379E+01  5.165532650969E+01  4.840610893835E+01
  4.520253698811E+01  4.205440519709E+01  3.897157819424E+01  3.745773215887E+01
  3.596389361970E+01  3.449127056902E+01  3.304105550292E+01  3.161442163506E+01
  3.021251900700E+01  2.883647050873E+01  2.748736782557E+01  2.616626732849E+01
  2.487418592735E+01  2.361209690776E+01  2.238092577430E+01  2.118154612438E+01
  2.001477557859E+01  1.888137179487E+01  1.778202859546E+01  1.671737223648E+01
  1.568795785130E+01  1.469426609983E+01  1.373670005601E+01  1.281558236699E+01
  1.193115271656E+01  1.108356562608E+01  1.027288862485E+01  9.499100821326E+00
  8.762091904816E+00  8.061661605759E+00  7.397519640093E+00  6.769286160611E+00
  6.176492734836E+00  5.618583865205E+00  5.094919063074E+00  4.604775483374E+00
  4.147351121430E+00  3.721768568098E+00  3.327079313073E+00  2.962268580152E+00
  2.626260671544E+00  2.317924791570E+00  2.036081313243E+00  1.779508444352E+00
  1.546949242930E+00  1.337118925462E+00  1.148712405045E+00  9.804119910792E-01
  8.308951770064E-01  6.988424384520E-01  5.829449607591E-01  4.819122126933E-01
  3.944792820236E-01  3.194138889268E-01  2.555229948091E-01  2.016589272491E-01
  1.567249464144E-01  1.196801844834E-01  8.954389732221E-02  6.539897685257E-02
  4.639468311168E-02  3.174856681496E-02  2.074756609547E-02  1.274827479282E-02
  7.176393926144E-03  3.525392508405E-03  1.354418302844E-03  2.855131247330E-04
  2.004728626260E-07  2.355252501325E-04  7.796357230213E-04  1.467006317487E-03
  2.173406030563E-03  2.810720878753E-03  3.321739696507E-03  3.675010608592E-03
  3.859870586809E-03  3.881742721595E-03  3.757785355467E-03  3.512964309452E-03
  3.176604462783E-03  2.779460396458E-03  2.351328244713E-03  1.919202945153E-03
  1.505967412377E-03  1.129583472519E-03  8.027393625639E-04  5.328958455674E-04
  3.226630639104E-04  1.704335743645E-04  7.119386147301E-05  1.743712058780E-05
  1.041642052962E-07  9.486669215829E-06  3.603719677085E-05  7.104286136163E-05
  1.071334444961E-04  1.386092884239E-04  1.615885698241E-04  1.739866595180E-04
  1.753514150072E-04  1.665867565393E-04  1.496022623664E-04  1.269285342863E-04
  1.013367375046E-04  7.549628024055E-05  5.169758724930E-05  3.165806571916E-05
  1.641953964299E-05  6.335590299190E-06  1.138321505570E-06  6.689879733988E-08
  2.035431690242E-06  5.815759473607E-06  1.021154325531E-05  1.420352572664E-05
  1.705136964501E-05  1.834436770869E-05  1.800062744131E-05  1.622113796113E-05
  1.341056885912E-05  1.008007953294E-05  6.748461506913E-06  3.856567452911E-06
  1.706515731174E-06  4.322167552694E-07  2.175730065369E-09  0.000000000000E+00
  0.000000000000E+00  0.000000000000E+00  0.000000000000E+00  0.000000000000E+00
  0.000000000000E+00  0.000000000000E+00  0.000000000000E+00  0.000000000000E+00
  0.000000000000E+00  0.000000000000E+00  0.000000000000E+00  0.000000000000E+00
  0.000000000000E+00  0.000000000000E+00  0.000000000000E+00  0.000000000000E+00
  0.000000000000E+00  0.000000000000E+00  0.000000000000E+00  0.000000000000E+00
  0.000000000000E+00  0.000000000000E+00  0.000000000000E+00  0.000000000000E+00
  0.000000000000E+00  0.000000000000E+00  0.000000000000E+00  0.000000000000E+00
  0.000000000000E+00  0.000000000000E+00  0.000000000000E+00  0.000000000000E+00
  0.000000000000E+00  0.000000000000E+00  0.000000000000E+00  0.000000000000E+00
  0.000000000000E+00  0.000000000000E+00  0.000000000000E+00  0.000000000000E+00
  0.000000000000E+00  0.000000000000E+00  0.000000000000E+00  0.000000000000E+00
  0.000000000000E+00  0.000000000000E+00  0.000000000000E+00  0.000000000000E+00
  0.000000000000E+00  0.000000000000E+00  0.000000000000E+00  0.000000000000E+00
  0.000000000000E+00  0.000000000000E+00  0.000000000000E+00  0.000000000000E+00
  0.000000000000E+00  0.000000000000E+00  0.000000000000E+00  0.000000000000E+00
  0.000000000000E+00  0.000000000000E+00  0.000000000000E+00  0.000000000000E+00
  0.000000000000E+00  0.000000000000E+00  0.000000000000E+00  0.000000000000E+00
  0.000000000000E+00  0.000000000000E+00  0.000000000000E+00  0.000000000000E+00
  0.000000000000E+00  0.000000000000E+00  0.000000000000E+00  0.000000000000E+00
  0.000000000000E+00  0.000000000000E+00  0.000000000000E+00  0.000000000000E+00
  0.000000000000E+00  0.000000000000E+00  0.000000000000E+00  0.000000000000E+00
  0.000000000000E+00  0.000000000000E+00  0.000000000000E+00  0.000000000000E+00
  0.000000000000E+00  0.000000000000E+00  0.000000000000E+00  0.000000000000E+00
  0.000000000000E+00  0.000000000000E+00  0.000000000000E+00  0.000000000000E+00
  0.000000000000E+00  0.000000000000E+00
</data>
</radfunc>
</pseudocore-charge>
<semilocal-potentials set="lj">
<slps n="3" l="s" j="0.5" rc="1.26204037057" eref="-4.20315901015">
<radfunc>
<data npts="290">
 -2.919545647956E+01 -2.919547580740E+01 -2.919553325617E+01 -2.919562872700E+01
 -2.919576074590E+01 -2.919593306925E+01 -2.919615059710E+01 -2.919639678095E+01
 -2.919669817485E+01 -2.919701854788E+01 -2.919737275233E+01 -2.919774934206E+01
 -2.919819262807E+01 -2.919864155142E+01 -2.919907546457E+01 -2.919955695450E+01
 -2.920008669051E+01 -2.920056394632E+01 -2.920107099884E+01 -2.920160287068E+01
 -2.920215140270E+01 -2.920259400377E+01 -2.920303034921E+01 -2.920344836678E+01
 -2.920383213323E+01 -2.920416086905E+01 -2.920440768700E+01 -2.920451859733E+01
 -2.920454617563E+01 -2.920446883159E+01 -2.920426075208E+01 -2.920389114353E+01
 -2.920332334499E+01 -2.920251379140E+01 -2.920141080361E+01 -2.919995317875E+01
 -2.919806855120E+01 -2.919567149097E+01 -2.919373974251E+01 -2.919150174221E+01
 -2.918891948888E+01 -2.918595068495E+01 -2.918254828653E+01 -2.917866001194E+01
 -2.917422780613E+01 -2.916918725843E+01 -2.916346697125E+01 -2.915698787755E+01
 -2.914966250554E+01 -2.914139418937E+01 -2.913207622567E+01 -2.912159097657E+01
 -2.910980892139E+01 -2.909658766067E+01 -2.908177087838E+01 -2.906518727097E+01
 -2.904664945417E+01 -2.902595286300E+01 -2.900287466387E+01 -2.897717270240E+01
 -2.894858451558E+01 -2.891682644203E+01 -2.888159286865E+01 -2.884255565656E+01
 -2.879936379152E+01 -2.875164330493E+01 -2.869899750862E+01 -2.867069757831E+01
 -2.864100758027E+01 -2.860987186105E+01 -2.857723352519E+01 -2.854303448646E+01
 -2.850721552481E+01 -2.846971634885E+01 -2.843047566358E+01 -2.838943124283E+01
 -2.834652000616E+01 -2.830167809961E+01 -2.825484097998E+01 -2.820594350208E+01
 -2.815492000877E+01 -2.810170442341E+01 -2.804623034464E+01 -2.798843114361E+01
 -2.792824006371E+01 -2.786559032329E+01 -2.780041522200E+01 -2.773264825134E+01
 -2.766222321034E+01 -2.758907432749E+01 -2.751313638966E+01 -2.743434487931E+01
 -2.735263612070E+01 -2.726794743598E+01 -2.718021731175E+01 -2.708938557637E+01
 -2.699539358789E+01 -2.689818443238E+01 -2.679770313152E+01 -2.669389685845E+01
 -2.658671515962E+01 -2.647611018065E+01 -2.636203689289E+01 -2.624445331731E+01
 -2.612332074160E+01 -2.599860392565E+01 -2.587027129033E+01 -2.573829508387E+01
 -2.560265152000E+01 -2.546332088153E+01 -2.532028758372E+01 -2.517354019151E+01
 -2.502307138578E+01 -2.486887787460E+01 -2.471096024678E+01 -2.454932276690E+01
 -2.438397311268E+01 -2.421492205836E+01 -2.404218310982E+01 -2.386577210037E+01
 -2.368570675886E+01 -2.350200626481E+01 -2.331469080850E+01 -2.312378117678E+01
 -2.292929838898E+01 -2.273126340999E+01 -2.252969697134E+01 -2.232461953402E+01
 -2.211605143041E+01 -2.190401322603E+01 -2.168852634522E+01 -2.146961400847E+01
 -2.124730253186E+01 -2.102162304219E+01 -2.079261366349E+01 -2.056032223124E+01
 -2.032480959108E+01 -2.008615353596E+01 -1.984445343155E+01 -1.959983557185E+01
 -1.935245929541E+01 -1.910252387676E+01 -1.885027618607E+01 -1.859601908275E+01
 -1.834012047447E+01 -1.808302293214E+01 -1.782525370282E+01 -1.756743490787E+01
 -1.731029365350E+01 -1.705467171761E+01 -1.680153441404E+01 -1.655197817758E+01
 -1.630723636710E+01 -1.606868275730E+01 -1.583783219197E+01 -1.561633791898E+01