<?xml version="1.0" encoding="UTF-8" ?>
<psml version="1.1" energy_unit="hartree" length_unit="bohr"
 uuid="b558ab40-53a0-11e8-796f-c39af8f562b0"
 xmlns="http://esl.cecam.org/PSML/ns/1.1">
<provenance creator="ONCVPSP-3.3.0+psml-3.3.0-73 (fully-relativistic)"
 date="2018-05-09">
<annotation action="semilocal-pseudopotential-generation"
 action-cont="projectors-generation" />
<input-file name="oncvpsp-input">
<![CDATA[# atsym z nc nv iexc psfile
Fe 26 3 4 -116133 upf
# n l f
1 0 2.0
2 0 2.0
2 1 6.0
3 0 2.0
3 1 6.0
3 2 6.0
4 0 2.0
# lmax
2
# l rc ep ncon nbas qcut
0 1.1 0.0 3 7 10.3
1 1.1 0.0 3 7 9.2
2 1.35 0.0 3 7 10.8
# lloc lpopt rc5 dvloc0
4 5 1.1 0.0
# l nproj debl
0 2 1.0
1 2 0.8
2 2 0.8
# icmod fcfact
3 3.0 1.7
# epsh1 epsh2 depsh
-24.0 12.0 0.02
# rlmax drl
6.0 0.01
 0
]]>
</input-file>
</provenance>
<pseudo-atom-spec atomic-label="Fe" atomic-number="26" z-pseudo="16"
 flavor="Hamann&apos;s oncvpsp" relativity="dirac" spin-dft="no"
 core-corrections="yes">
<annotation pseudo-energy="-122.591870387" />
<exchange-correlation>
<annotation oncvpsp-xc-code="-116133" oncvpsp-xc-type="libxc-interface" />
<libxc-info number-of-functionals="2">
<functional name="Perdew, Burke &amp; Ernzerhof SOL (GGA)" type="exchange"
 id="116" />
<functional name="Perdew, Burke &amp; Ernzerhof SOL (GGA)" type="correlation"
 id="133" />
</libxc-info>
</exchange-correlation>
<valence-configuration total-valence-charge="16">
<shell n="3" l="s" occupation="2" />
<shell n="3" l="p" occupation="6" />
<shell n="3" l="d" occupation="6" />
<shell n="4" l="s" occupation="2" />
</valence-configuration>
</pseudo-atom-spec>
<grid npts="457">
<annotation type="sampled from oncvpsp log grid"
 recipe="r(i:1..N) = r1*exp(a*(i-1)) + r=0; resampled"
 recipe-cont="r1: scale; a: step" scale="0.192307692308E-04"
 step="0.119285708653E-01" delta="0.500000000000E-02" rmax="44.2248135897" />
<grid-data>
  0.000000000000E+00  5.050053692967E-03  1.008708593772E-02  1.513223739776E-02
  2.014816255451E-02  2.527348802918E-02  3.058816214668E-02  3.571906205505E-02
  4.072730601400E-02  4.588712082187E-02  5.108759065353E-02  5.620300303659E-02
  6.183062285620E-02  6.721515569429E-02  7.306860171076E-02  7.848991730107E-02
  8.431346671058E-02  8.949515180459E-02  9.499528970881E-02  1.008334516999E-01
  1.070304118539E-01  1.122610879123E-01  1.177473919885E-01  1.235018168622E-01
  1.295374658469E-01  1.358680826271E-01  1.425080825541E-01  1.477001832717E-01
  1.530814515745E-01  1.586587795431E-01  1.644393103617E-01  1.704304474680E-01
  1.766398640339E-01  1.830755127941E-01  1.897456362307E-01  1.966587771303E-01
  2.038237895251E-01  2.112498500326E-01  2.163502664118E-01  2.215738272440E-01
  2.269235057290E-01  2.324023468513E-01  2.380134691137E-01  2.437600663120E-01
  2.496454093530E-01  2.556728481164E-01  2.618458133614E-01  2.681678186792E-01
  2.746424624934E-01  2.812734301078E-01  2.880644958043E-01  2.950195249910E-01
  3.021424764024E-01  3.094374043527E-01  3.169084610433E-01  3.245598989268E-01
  3.323960731265E-01  3.404214439160E-01  3.486405792579E-01  3.570581574035E-01
  3.656789695559E-01  3.745079225969E-01  3.835500418800E-01  3.928104740912E-01
  4.022944901776E-01  4.120074883485E-01  4.219549971472E-01  4.270184571129E-01
  4.321426785983E-01  4.373283907415E-01  4.425763314304E-01  4.478872474075E-01
  4.532618943764E-01  4.587010371089E-01  4.642054495543E-01  4.697759149489E-01
  4.754132259283E-01  4.811181846394E-01  4.868916028551E-01  4.927343020894E-01
  4.986471137144E-01  5.046308790790E-01  5.106864496280E-01  5.168146870235E-01
  5.230164632678E-01  5.292926608270E-01  5.356441727569E-01  5.420719028300E-01
  5.485767656640E-01  5.551596868519E-01  5.618216030941E-01  5.685634623313E-01
  5.753862238793E-01  5.822908585658E-01  5.892783488686E-01  5.963496890550E-01
  6.035058853237E-01  6.107479559476E-01  6.180769314189E-01  6.254938545960E-01
  6.329997808511E-01  6.405957782213E-01  6.482829275600E-01  6.560623226907E-01
  6.639350705630E-01  6.719022914097E-01  6.799651189067E-01  6.881247003335E-01
  6.963821967375E-01  7.047387830984E-01  7.131956484956E-01  7.217539962775E-01
  7.304150442328E-01  7.391800247636E-01  7.480501850608E-01  7.570267872815E-01
  7.661111087289E-01  7.753044420337E-01  7.846080953381E-01  7.940233924821E-01
  8.035516731919E-01  8.131942932702E-01  8.229526247895E-01  8.328280562869E-01
  8.428219929624E-01  8.529358568779E-01  8.631710871605E-01  8.735291402064E-01
  8.840114898889E-01  8.946196277675E-01  9.053550633007E-01  9.162193240603E-01
  9.272139559491E-01  9.383405234205E-01  9.496006097015E-01  9.609958170179E-01
  9.725277668221E-01  9.841981000240E-01  9.960084772243E-01  1.007960578951E+00
  1.020056105898E+00  1.032296779169E+00  1.044684340519E+00  1.057220552605E+00
  1.069907199237E+00  1.082746085628E+00  1.095739038655E+00  1.108887907119E+00
  1.122194562004E+00  1.135660896748E+00  1.149288827509E+00  1.163080293440E+00
  1.177037256961E+00  1.191161704044E+00  1.205455644493E+00  1.219921112227E+00
  1.234560165573E+00  1.249374887560E+00  1.264367386211E+00  1.279539794846E+00
  1.294894272384E+00  1.310433003652E+00  1.326158199696E+00  1.342072098093E+00
  1.358176963270E+00  1.374475086829E+00  1.390968787871E+00  1.407660413325E+00
  1.424552338285E+00  1.441646966345E+00  1.458946729941E+00  1.476454090700E+00
  1.494171539788E+00  1.512101598266E+00  1.530246817445E+00  1.548609779254E+00
  1.567193096605E+00  1.585999413765E+00  1.605031406730E+00  1.624291783611E+00
  1.643783285014E+00  1.663508684434E+00  1.683470788647E+00  1.703672438111E+00
  1.724116507368E+00  1.744805905457E+00  1.765743576322E+00  1.786932499238E+00
  1.808375689229E+00  1.830076197500E+00  1.852037111870E+00  1.874261557212E+00
  1.896752695899E+00  1.919513728250E+00  1.942547892989E+00  1.965858467705E+00
  1.989448769317E+00  2.013322154549E+00  2.037482020403E+00  2.061931804648E+00
  2.086674986304E+00  2.111715086140E+00  2.137055667173E+00  2.162700335179E+00
  2.188652739202E+00  2.214916572072E+00  2.241495570937E+00  2.268393517788E+00
  2.295614240002E+00  2.323161610882E+00  2.351039550212E+00  2.379252024815E+00
  2.407803049112E+00  2.436696685702E+00  2.465937045930E+00  2.495528290481E+00
  2.525474629967E+00  2.555780325527E+00  2.586449689433E+00  2.617487085706E+00
  2.648896930735E+00  2.680683693904E+00  2.712851898230E+00  2.745406121009E+00
  2.778350994461E+00  2.811691206395E+00  2.845431500872E+00  2.879576678882E+00
  2.914131599029E+00  2.949101178217E+00  2.984490392356E+00  3.020304277064E+00
  3.056547928389E+00  3.093226503529E+00  3.130345221572E+00  3.167909364230E+00
  3.205924276601E+00  3.244395367920E+00  3.283328112335E+00  3.322728049683E+00
  3.362600786280E+00  3.402951995715E+00  3.443787419664E+00  3.485112868700E+00
  3.526934223124E+00  3.569257433801E+00  3.612088523007E+00  3.655433585283E+00
  3.699298788307E+00  3.743690373766E+00  3.788614658251E+00  3.834078034150E+00
  3.880086970560E+00  3.926648014207E+00  3.973767790377E+00  4.021453003862E+00
  4.069710439908E+00  4.118546965187E+00  4.167969528769E+00  4.217985163115E+00
  4.268600985072E+00  4.319824196893E+00  4.371662087256E+00  4.424122032303E+00
  4.477211496690E+00  4.530938034651E+00  4.585309291066E+00  4.640333002559E+00
  4.696016998590E+00  4.752369202573E+00  4.809397633004E+00  4.867110404600E+00
  4.925515729455E+00  4.984621918209E+00  5.044437381227E+00  5.104970629802E+00
  5.166230277360E+00  5.228225040688E+00  5.290963741176E+00  5.354455306070E+00
  5.418708769743E+00  5.483733274980E+00  5.549538074280E+00  5.616132531171E+00
  5.683526121545E+00  5.751728435004E+00  5.820749176224E+00  5.890598166338E+00
  5.961285344334E+00  6.032820768466E+00  6.105214617688E+00  6.178477193100E+00
  6.252618919418E+00  6.327650346451E+00  6.403582150608E+00  6.480425136415E+00
  6.558190238052E+00  6.636888520909E+00  6.716531183160E+00  6.797129557358E+00
  6.878695112046E+00  6.961239453391E+00  7.044774326831E+00  7.129311618753E+00
  7.214863358178E+00  7.301441718476E+00  7.389059019098E+00  7.477727727327E+00
  7.567460460055E+00  7.658269985576E+00  7.750169225403E+00  7.843171256108E+00
  7.937289311181E+00  8.032536782915E+00  8.128927224310E+00  8.226474351002E+00
  8.325192043214E+00  8.425094347732E+00  8.526195479905E+00  8.628509825664E+00
  8.732051943572E+00  8.836836566895E+00  8.942878605698E+00  9.050193148966E+00
  9.158795466753E+00  9.268701012355E+00  9.379925424503E+00  9.492484529597E+00
  9.606394343952E+00  9.721671076079E+00  9.838331128992E+00  9.956391102540E+00
  1.007586779577E+01  1.019677820932E+01  1.031913954783E+01  1.044296922241E+01
  1.056828485307E+01  1.069510427131E+01  1.082344552257E+01  1.095332686884E+01
  1.108476679126E+01  1.121778399276E+01  1.135239740067E+01  1.148862616948E+01
  1.162648968351E+01  1.176600755972E+01  1.190719965043E+01  1.205008604624E+01
  1.219468707879E+01  1.234102332374E+01  1.248911560362E+01  1.263898499087E+01
  1.279065281076E+01  1.294414064449E+01  1.309947033222E+01  1.325666397621E+01
  1.341574394392E+01  1.357673287125E+01  1.373965366570E+01  1.390452950969E+01
  1.407138386381E+01  1.424024047017E+01  1.441112335582E+01  1.458405683609E+01
  1.475906551812E+01  1.493617430434E+01  1.511540839599E+01  1.529679329674E+01
  1.548035481630E+01  1.566611907410E+01  1.585411250299E+01  1.604436185302E+01
  1.623689419526E+01  1.643173692560E+01  1.662891776871E+01  1.682846478193E+01
  1.703040635932E+01  1.723477123563E+01  1.744158849046E+01  1.765088755234E+01
  1.786269820297E+01  1.807705058140E+01  1.829397518838E+01  1.851350289064E+01
  1.873566492533E+01  1.896049290443E+01  1.918801881929E+01  1.941827504512E+01
  1.965129434566E+01  1.988710987781E+01  2.012575519634E+01  2.036726425870E+01
  2.061167142980E+01  2.085901148696E+01  2.110931962480E+01  2.136263146030E+01
  2.161898303782E+01  2.187841083428E+01  2.214095176429E+01  2.240664318546E+01
  2.267552290369E+01  2.294762917853E+01  2.322300072867E+01  2.350167673742E+01
  2.378369685827E+01  2.406910122057E+01  2.435793043521E+01  2.465022560043E+01
  2.494602830764E+01  2.524538064733E+01  2.554832521510E+01  2.585490511768E+01
  2.616516397909E+01  2.647914594684E+01  2.679689569820E+01  2.711845844658E+01
  2.744387994794E+01  2.777320650732E+01  2.810648498540E+01  2.844376280523E+01
  2.878508795889E+01  2.913050901440E+01  2.948007512257E+01  2.983383602404E+01
  3.019184205633E+01  3.055414416101E+01  3.092079389094E+01  3.129184341763E+01
  3.166734553864E+01  3.204735368511E+01  3.243192192933E+01  3.282110499248E+01
  3.321495825239E+01  3.361353775142E+01  3.401690020443E+01  3.442510300689E+01
  3.483820424297E+01  3.525626269389E+01  3.567933784621E+01  3.610748990037E+01
  3.654077977917E+01  3.697926913652E+01  3.742302036616E+01  3.787209661055E+01
  3.832656176988E+01  3.878648051112E+01  3.925191827725E+01  3.972294129658E+01
  4.019961659214E+01  4.068201199124E+01  4.117019613514E+01  4.166423848876E+01
  4.216420935063E+01  4.267017986283E+01  4.318222202119E+01  4.370040868544E+01
  4.422481358967E+01
</grid-data>
</grid>
<valence-charge total-charge="16" is-unscreening-charge="yes"
 rescaled-to-z-pseudo="no">
<radfunc>
<data npts="457">
  5.409518520452E+00  5.416534108411E+00  5.437506174029E+00  5.472495220482E+00
  5.521142860264E+00  5.585110789878E+00  5.666639219025E+00  5.759998780887E+00
  5.864974017419E+00  5.987393818239E+00  6.125382867368E+00  6.275366345526E+00
  6.456624641955E+00  6.645919205871E+00  6.869197748227E+00  7.092149068575E+00
  7.348824495451E+00  7.592055381736E+00  7.865397472670E+00  8.172459274807E+00
  8.517244196719E+00  8.823194009215E+00  9.158588082482E+00  9.526096182129E+00
  9.928588460026E+00  1.036913908762E+01  1.085102619963E+01  1.124165304847E+01
  1.165902037750E+01  1.210471977307E+01  1.258039121106E+01  1.308771431478E+01
  1.362839686599E+01  1.420416004657E+01  1.481671981586E+01  1.546776375126E+01
  1.615892260220E+01  1.689173573013E+01  1.740412050894E+01  1.793602104921E+01
  1.848776793317E+01  1.905964005051E+01  1.965185536965E+01  2.026456075129E+01
  2.089782075321E+01  2.155160538164E+01  2.222577675337E+01  2.292007464484E+01
  2.363410092021E+01  2.436730284974E+01  2.511895535477E+01  2.588814224499E+01
  2.667373654976E+01  2.747438008708E+01  2.828846246338E+01  2.911409975376E+01
  2.994911317644E+01  3.079100814730E+01  3.163695417938E+01  3.248376617817E+01
  3.332788777487E+01  3.416537743496E+01  3.499189817548E+01  3.580271181909E+01
  3.659267880069E+01  3.735626461889E+01  3.808755408354E+01  3.843914060469E+01
  3.878027454371E+01  3.911012144122E+01  3.942782928061E+01  3.973253016688E+01
  4.002334220645E+01  4.029937159434E+01  4.055971491474E+01  4.080346165947E+01
  4.102969696789E+01  4.123750459042E+01  4.142597007608E+01  4.159418418281E+01
  4.174124650761E+01  4.186626933091E+01  4.196838166786E+01  4.204673351630E+01
  4.210050028883E+01  4.212888741338E+01  4.213113508391E+01  4.210652313967E+01
  4.205437604851E+01  4.197406796623E+01  4.186502784099E+01  4.172674452847E+01
  4.155877188020E+01  4.136073376469E+01  4.113232897773E+01  4.087333599595E+01
  4.058361752498E+01  4.026312479178E+01  3.991190152896E+01  3.953008759774E+01
  3.911792219578E+01  3.867574659605E+01  3.820400636367E+01  3.770325299912E+01
  3.717414495872E+01  3.661744800613E+01  3.603403485300E+01  3.542488405152E+01
  3.479107810791E+01  3.413380079216E+01  3.345433362757E+01  3.275405155151E+01
  3.203441774861E+01  3.129697766711E+01  3.054335223964E+01  2.977523034062E+01
  2.899436052337E+01  2.820254209126E+01  2.740161556814E+01  2.659345264379E+01
  2.577994568033E+01  2.496299687443E+01  2.414450717851E+01  2.332636509070E+01
  2.251043542880E+01  2.169854820707E+01  2.089248773635E+01  2.009398206796E+01
  1.930469289941E+01  1.852620605557E+01  1.776002265264E+01  1.700755104349E+01
  1.627009963283E+01  1.554887063828E+01  1.484495486019E+01  1.415932750778E+01
  1.349284511420E+01  1.284624355637E+01  1.222013717964E+01  1.161501901113E+01
  1.103126203061E+01  1.046912145308E+01  9.928737964952E+00  9.410141844049E+00
  8.913257884762E+00  8.437911042337E+00  7.983832705460E+00  7.550667503535E+00
  7.137978954327E+00  6.745254783390E+00  6.371931809302E+00  6.017411314210E+00
  5.681063597634E+00  5.362234161500E+00  5.060249692790E+00  4.774423709263E+00
  4.504061852047E+00  4.248466798310E+00  4.006942772831E+00  3.778799640912E+00
  3.563356567847E+00  3.359945232339E+00  3.167912582993E+00  2.986623128655E+00
  2.815460755244E+00  2.653851378303E+00  2.501331024536E+00  2.357495638654E+00
  2.221934995007E+00  2.094248635978E+00  1.974046517294E+00  1.860949558857E+00
  1.754590105614E+00  1.654612303172E+00  1.560672392968E+00  1.472438931878E+00
  1.389592941199E+00  1.311827989958E+00  1.238850217474E+00  1.170378300065E+00
  1.106143366719E+00  1.045888868450E+00  9.893704059584E-01  9.363555200572E-01
  8.866234491912E-01  8.399648581869E-01  7.961815421924E-01  7.550861095571E-01
  7.165016471938E-01  6.802613717370E-01  6.462082695874E-01  6.141947286968E-01
  5.840821647166E-01  5.557406439026E-01  5.290485049446E-01  5.038919816708E-01
  4.801648283749E-01  4.577679493149E-01  4.366090337550E-01  4.166021977518E-01
  3.976676337352E-01  3.797312687874E-01  3.627244323989E-01  3.465835343583E-01
  3.312497533221E-01  3.166687365104E-01  3.027903108791E-01  2.895682060278E-01
  2.769597890246E-01  2.649258112458E-01  2.534301672613E-01  2.424396657252E-01
  2.319238121732E-01  2.218546035700E-01  2.122063344019E-01  2.029554140631E-01
  1.940801952485E-01  1.855608130311E-01  1.773790342746E-01  1.695181170119E-01
  1.619626794014E-01  1.546985778599E-01  1.477127939658E-01  1.409933297174E-01
  1.345291107340E-01  1.283098969868E-01  1.223262006510E-01  1.165692106787E-01
  1.110307236987E-01  1.057030808597E-01  1.005791102453E-01  9.565207449907E-02
  9.091562331429E-02  8.636375045199E-02  8.199075496837E-02  7.779120634455E-02
  7.375991322655E-02  6.989189549749E-02  6.618235941809E-02  6.262667558596E-02
  5.922035947791E-02  5.595905435368E-02  5.283851631314E-02  4.985460131274E-02
  4.700325396052E-02  4.428049792208E-02  4.168242778320E-02  3.920520222763E-02
  3.684503840075E-02  3.459820734202E-02  3.246103037403E-02  3.042987638752E-02
  2.850115986755E-02  2.667133965441E-02  2.493691833630E-02  2.329444221803E-02
  2.174050180896E-02  2.027173277639E-02  1.888481731351E-02  1.757648587179E-02
  1.634351920802E-02  1.518275069561E-02  1.409106884869E-02  1.306542000646E-02
  1.210281112422E-02  1.120031261705E-02  1.035506120229E-02  9.564262688232E-03
  8.825194658157E-03  8.135209002463E-03  7.491734255194E-03  6.892277696532E-03
  6.334427188236E-03  5.815852715215E-03  5.334307612770E-03  4.887629465591E-03
  4.473740670964E-03  4.090648664764E-03  3.736445814502E-03  3.409308988821E-03
  3.107498817359E-03  2.829358658717E-03  2.573313297372E-03  2.337867392817E-03
  2.121603705906E-03  1.923181128497E-03  1.741332542962E-03  1.574862538099E-03
  1.422645007492E-03  1.283620655456E-03  1.156794434465E-03  1.041232936504E-03
  9.360617590420E-04  8.404628645430E-04  7.536719504605E-04  6.749758447402E-04
  6.037099398832E-04  5.392556767231E-04  4.810380872479E-04  4.285234040772E-04
  3.812167426159E-04  3.386598604679E-04  3.004289973978E-04  2.661327980057E-04
  2.354103183059E-04  2.079291165876E-04  1.833834282582E-04  1.614924238360E-04
  1.419985488315E-04  1.246659439411E-04  1.092789437408E-04  9.564065190647E-05
  8.357159087834E-05  7.290842382430E-05  6.350274671839E-05  5.521994833859E-05
  4.793813598385E-05  4.154712471402E-05  3.594748792209E-05  3.104966705202E-05
  2.677313827807E-05  2.304563396082E-05  1.980241669229E-05  1.698560373855E-05
  1.454353968418E-05  1.243021508038E-05  1.060472889910E-05  9.030792600321E-06
  7.676273630052E-06  6.512776183620E-06  5.515257092765E-06  4.661674726839E-06
  3.932668837723E-06  3.311269325027E-06  2.782631952298E-06  2.333799105884E-06
  1.953483755037E-06  1.631874844040E-06  1.360462423778E-06  1.131880910365E-06
  9.397689412070E-07  7.786443832015E-07  6.437931326599E-07  5.311704398888E-07
  4.373135361212E-07  3.592645597082E-07  2.945024990560E-07  2.408837429255E-07
  1.965895998772E-07  1.600805259636E-07  1.300563440433E-07  1.054216072285E-07
  8.525553417530E-08  6.878599270651E-08  5.536704814330E-08  4.445963870651E-08
  3.561498540533E-08  2.846038623309E-08  2.261349781487E-08  1.798405730443E-08
  1.426632729782E-08  1.128832446291E-08  8.908972317696E-09  7.012847499407E-09
  5.505762563628E-09  4.311062315740E-09  3.366526999991E-09  2.621790119856E-09
  2.036191405639E-09  1.576996642461E-09  1.217925876332E-09  9.379400704916E-10
  7.202437219947E-10  5.514673926414E-10  4.209996721316E-10  3.204428784146E-10
  2.431709046923E-10  1.839711296269E-10  1.387552935735E-10  1.043267776587E-10
  7.819386530282E-11  5.842037146595E-11  4.350654120282E-11  3.229438799387E-11
  2.389270041741E-11  1.761782496142E-11  1.294706079321E-11  9.482102975648E-12
  6.920464445673E-12  5.033211598578E-12  3.647678498754E-12  2.634093246837E-12
  1.895267590694E-12  1.358676489524E-12  9.703955810526E-13  6.904776649514E-13
  4.894396388556E-13  3.456031407080E-13  2.430890336865E-13  1.703107479658E-13
  1.188467611928E-13  8.260010478341E-14  5.717430411285E-14  3.941187042578E-14
  2.705438336606E-14  1.849315316796E-14  1.258708188140E-14  8.530169696603E-15
  5.755542864055E-15  3.866233955740E-15  2.585473638212E-15  1.721150662997E-15
  1.140514509293E-15  7.522495977154E-16  4.938307361485E-16  3.226448654103E-16
  2.097862761337E-16  1.357406578381E-16  8.739728971102E-17  5.599063479832E-17
  3.568914868355E-17  2.263257667963E-17  1.427848572751E-17  8.960941547312E-18
  5.593983146265E-18  3.473417787414E-18  2.145029483227E-18  1.317411806461E-18
  8.046244204641E-19  4.886739889023E-19  2.951006895008E-19  1.771807310809E-19
  1.057615811046E-19  6.275872497783E-20  3.701895890100E-20  2.170436101709E-20
  1.264768207722E-20  7.324601937176E-21  4.215352243762E-21  2.410613775426E-21
  1.369720436520E-21  7.732383941182E-22  0.000000000000E+00  0.000000000000E+00
  0.000000000000E+00  0.000000000000E+00  0.000000000000E+00  0.000000000000E+00
  0.000000000000E+00  0.000000000000E+00  0.000000000000E+00  0.000000000000E+00
  0.000000000000E+00  0.000000000000E+00  0.000000000000E+00  0.000000000000E+00
  0.000000000000E+00
</data>
</radfunc>
</valence-charge>
<pseudocore-charge matching-radius="0.416951578209"
 number-of-continuous-derivatives="4">
<annotation model-charge-form="Teter function with specified parameters" />
<radfunc>
<data npts="290">
  1.221954695464E+02  1.221758738826E+02  1.221173064175E+02  1.220196309921E+02
  1.218839018197E+02  1.217055617375E+02  1.214784824494E+02  1.212187497931E+02
  1.209270813433E+02  1.205874484191E+02  1.202052672983E+02  1.197906356102E+02
  1.192906036586E+02  1.187696264062E+02  1.181567057123E+02  1.175463745448E+02
  1.168457849099E+02  1.161838966595E+02  1.154423584201E+02  1.146121822925E+02
  1.136835261948E+02  1.128625137105E+02  1.119657057277E+02  1.109868069743E+02
  1.099191464592E+02  1.087556878193E+02  1.074890490428E+02  1.064667387675E+02
  1.053787170949E+02  1.042215637157E+02  1.029918044458E+02  1.016859325999E+02
  1.003004346787E+02  9.883182086612E+01  9.727666084581E+01  9.563162545345E+01
  9.389353467299E+01  9.205941245869E+01  9.078196225087E+01  8.945989691351E+01
  8.809256949890E+01  8.667942000908E+01  8.521998683130E+01  8.371391886435E+01
  8.216098831686E+01  8.056110414718E+01  7.891432610053E+01  7.722087928356E+01
  7.548116919876E+01  7.369579714131E+01  7.186557583884E+01  6.999154519042E+01
  6.807498793449E+01  6.611744504707E+01  6.412073064089E+01  6.208694610459E+01
  6.001849318730E+01  5.791808570081E+01  5.578875947718E+01  5.363388018764E+01
  5.145714859729E+01  4.926260280349E+01  4.705461698315E+01  4.483789615857E+01
  4.261746648473E+01  4.039866056468E+01  3.818709731695E+01  3.708585961980E+01
  3.598865595235E+01  3.489625658737E+01  3.380944366866E+01  3.272900983643E+01
  3.165575674470E+01  3.059049346997E+01  2.953403481139E+01  2.848719948298E+01
  2.745080819915E+01  2.642568165589E+01  2.541263841023E+01  2.441249266196E+01
  2.342605194213E+01  2.245411471412E+01  2.149746789374E+01  2.055688429618E+01
  1.963312001861E+01  1.872691176822E+01  1.783897414675E+01  1.696999690376E+01
  1.612064217198E+01  1.529154169904E+01  1.448329409142E+01  1.369646208716E+01
  1.293156987502E+01  1.218910047891E+01  1.146949322706E+01  1.077314132621E+01
  1.010038956202E+01  9.451532146977E+00  8.826810737773E+00  8.226412644127E+00
  7.650469250959E+00  7.099054675612E+00  6.572184681230E+00  6.069815866625E+00
  5.591845151868E+00  5.138109577469E+00  4.708386433288E+00  4.302393731334E+00
  3.919791034231E+00  3.560180648495E+00  3.223109188740E+00  2.908069515673E+00
  2.614503047103E+00  2.341802437370E+00  2.089314616478E+00  1.856344175936E+00
  1.642157083850E+00  1.445984707309E+00  1.267028115481E+00  1.104462632352E+00
  9.574426035794E-01  8.251063377531E-01  7.065811783657E-01  6.009886592908E-01
  5.074496934442E-01  4.250897418007E-01  3.530439080781E-01  2.904619032843E-01
  2.365128240452E-01  1.903896892439E-01  1.513136810777E-01  1.185380392125E-01
  9.135156031116E-02  6.908165983567E-02  5.109695864165E-02  3.680936346408E-02
  2.567561783943E-02  1.719830822941E-02  1.092631896193E-02  6.454738924104E-03
  3.424232538947E-03  1.519897217730E-03  4.696389694843E-04  4.210692075792E-05
  4.423589680910E-05  3.184536851754E-04  7.396158979489E-04  1.211736242199E-03
  1.664583298961E-03  2.050216437955E-03  2.339533142833E-03  2.518897731335E-03
  2.586917230367E-03  2.551424080390E-03  2.426717540826E-03  2.231106364290E-03
  1.984784786730E-03  1.708062489367E-03  1.419957324592E-03  1.137147697393E-03
  8.732700129322E-04  6.385359965475E-04  4.396354007734E-04  2.798820268747E-04
  1.595554311453E-04  7.638739654513E-05  2.614136025973E-05  3.234510796729E-06
  1.356091476178E-06  1.404133146700E-05  3.516801311968E-05  5.935151489776E-05
  8.222370383042E-05  1.005907038695E-04  1.124737400814E-04  1.170453861410E-04
  1.144801274918E-04  1.057428068741E-04  9.234099576165E-05  7.606755178530E-05
  5.875767076971E-05  4.208088704127E-05  2.738313556531E-05  1.558770370963E-05
  7.157283725127E-06  2.113024077377E-06  1.010631810579E-07  4.930084748593E-07
  2.504542105519E-06  5.315948142987E-06  8.179813887342E-06  1.050420379368E-05
  1.190380601411E-05  1.221634792367E-05  1.148634686280E-05  9.922400822097E-06
  7.837220700370E-06  5.581113976151E-06  3.479513705807E-06  1.783503375046E-06
  6.394335204101E-07  8.015022664823E-08  0.000000000000E+00  0.000000000000E+00
  0.000000000000E+00  0.000000000000E+00  0.000000000000E+00  0.000000000000E+00
  0.000000000000E+00  0.000000000000E+00  0.000000000000E+00  0.000000000000E+00
  0.000000000000E+00  0.000000000000E+00  0.000000000000E+00  0.000000000000E+00
  0.000000000000E+00  0.000000000000E+00  0.000000000000E+00  0.000000000000E+00
  0.000000000000E+00  0.000000000000E+00  0.000000000000E+00  0.000000000000E+00
  0.000000000000E+00  0.000000000000E+00  0.000000000000E+00  0.000000000000E+00
  0.000000000000E+00  0.000000000000E+00  0.000000000000E+00  0.000000000000E+00
  0.000000000000E+00  0.000000000000E+00  0.000000000000E+00  0.000000000000E+00
  0.000000000000E+00  0.000000000000E+00  0.000000000000E+00  0.000000000000E+00
  0.000000000000E+00  0.000000000000E+00  0.000000000000E+00  0.000000000000E+00
  0.000000000000E+00  0.000000000000E+00  0.000000000000E+00  0.000000000000E+00
  0.000000000000E+00  0.000000000000E+00  0.000000000000E+00  0.000000000000E+00
  0.000000000000E+00  0.000000000000E+00  0.000000000000E+00  0.000000000000E+00
  0.000000000000E+00  0.000000000000E+00  0.000000000000E+00  0.000000000000E+00
  0.000000000000E+00  0.000000000000E+00  0.000000000000E+00  0.000000000000E+00
  0.000000000000E+00  0.000000000000E+00  0.000000000000E+00  0.000000000000E+00
  0.000000000000E+00  0.000000000000E+00  0.000000000000E+00  0.000000000000E+00
  0.000000000000E+00  0.000000000000E+00  0.000000000000E+00  0.000000000000E+00
  0.000000000000E+00  0.000000000000E+00  0.000000000000E+00  0.000000000000E+00
  0.000000000000E+00  0.000000000000E+00  0.000000000000E+00  0.000000000000E+00
  0.000000000000E+00  0.000000000000E+00  0.000000000000E+00  0.000000000000E+00
  0.000000000000E+00  0.000000000000E+00
</data>
</radfunc>
</pseudocore-charge>
<semilocal-potentials set="lj">
<slps n="3" l="s" j="0.5" rc="1.10888790712" eref="-3.44506390767">
<radfunc>
<data npts="290">
 -1.160968331074E+01 -1.161276364924E+01 -1.162196628403E+01 -1.163730511073E+01
 -1.165860195289E+01 -1.168655319239E+01 -1.172209157455E+01 -1.176266934450E+01
 -1.180814639776E+01 -1.186098239976E+01 -1.192028399866E+01 -1.198443755156E+01
 -1.206155182303E+01 -1.214160348554E+01 -1.223540214038E+01 -1.232839751829E+01
 -1.243464750774E+01 -1.253454185596E+01 -1.264589933559E+01 -1.276987241561E+01
 -1.290768741948E+01 -1.302877279715E+01 -1.316023262617E+01 -1.330277416376E+01
 -1.345711664818E+01 -1.362398323437E+01 -1.380409100437E+01 -1.394828284907E+01
 -1.410060014260E+01 -1.426131211727E+01 -1.443066927337E+01 -1.460889841905E+01
 -1.479619719501E+01 -1.499272807803E+01 -1.519861186607E+01 -1.541392065811E+01
 -1.563867035335E+01 -1.587281270798E+01 -1.603406938213E+01 -1.619939314912E+01
 -1.636871138094E+01 -1.654193307542E+01 -1.671894766308E+01 -1.689962381192E+01
 -1.708380823749E+01 -1.727132452643E+01 -1.746197198223E+01 -1.765552450227E+01
 -1.785172949569E+01 -1.805030685220E+01 -1.825094797196E+01 -1.845331486713E+01
 -1.865703934577E+01 -1.886172228897E+01 -1.906693303214E+01 -1.927220886148E+01
 -1.947705463671E+01 -1.968094255134E+01 -1.988331204166E+01 -2.008356985638E+01
 -2.028109029878E+01 -2.047521565428E+01 -2.066525681725E+01 -2.085049413184E+01
 -2.103017846384E+01 -2.120353252208E+01 -2.136975245083E+01 -2.144992910601E+01
 -2.152800971731E+01 -2.160388722482E+01 -2.167745332162E+01 -2.174859854266E+01
 -2.181721235999E+01 -2.188318328460E+01 -2.194639897519E+01 -2.200674635418E+01
 -2.206411173129E+01 -2.211838093491E+01 -2.216943945178E+01 -2.221717257508E+01
 -2.226146556128E+01 -2.230220379610E+01 -2.233927296979E+01 -2.237255926187E+01
 -2.240194953565E+01 -2.242733154255E+01 -2.244859413639E+01 -2.246562749762E+01
 -2.247832336748E+01 -2.248657529192E+01 -2.249027887520E+01 -2.248933204273E+01
 -2.248363531289E+01 -2.247309207739E+01 -2.245760888944E+01 -2.243709575926E+01
 -2.241146645608E+01 -2.238063881575E+01 -2.234453505303E+01 -2.230308207755E+01
 -2.225621181222E+01 -2.220386151284E+01 -2.214597408765E+01 -2.208249841531E+01
 -2.201338965981E+01 -2.193860958067E+01 -2.185812683666E+01 -2.177191728135E+01
 -2.167996424836E+01 -2.158225882444E+01 -2.147880010825E+01 -2.136959545259E+01
 -2.125466068787E+01 -2.113402032469E+01 -2.100770773321E+01 -2.087576529720E+01
 -2.073824454102E+01 -2.059520622783E+01 -2.044672042781E+01 -2.029286655606E+01
 -2.013373338014E+01 -1.996941899865E+01 -1.980003079334E+01 -1.962568535863E+01
 -1.944650841446E+01 -1.926263471025E+01 -1.907420793045E+01 -1.888138061442E+01
 -1.868431410679E+01 -1.848317855727E+01 -1.827815299213E+01 -1.806942548296E+01
 -1.785719344108E+01 -1.764166406851E+01 -1.742305499822E+01 -1.720159515684E+01
 -1.697752588163E+01 -1.675110232057E+01 -1.652259513734E+01 -1.629229253347E+01
 -1.606050258465E+01 -1.582755586820E+01 -1.559380833170E+01 -1.535964431892E+01
 -1.512547959056E+01 -1.489176476315E+01 -1.465898686155E+01 -1.442766017695E+01
 -1.425797573864E+01 -1.408996268738E+01 -1.392383214201E+01 -1.375955437384E+01
 -1.359709784629E+01 -1.343643633107E+01 -1.327754312145E+01 -1.312039214984E+01