<?xml version="1.0" encoding="UTF-8" ?>
<psml version="1.1" energy_unit="hartree" length_unit="bohr"
 uuid="95ab74a0-539e-11e8-62d3-817beebfe2b8"
 xmlns="http://esl.cecam.org/PSML/ns/1.1">
<provenance creator="ONCVPSP-3.3.0+psml-3.3.0-73 (fully-relativistic)"
 date="2018-05-09">
<annotation action="semilocal-pseudopotential-generation"
 action-cont="projectors-generation" />
<input-file name="oncvpsp-input">
<![CDATA[# atsym z nc nv iexc psfile
Fe 26 3 4 -116133 upf
# n l f
1 0 2.0
2 0 2.0
2 1 6.0
3 0 2.0
3 1 6.0
3 2 6.0
4 0 2.0
# lmax
2
# l rc ep ncon nbas qcut
0 1.25 0.0 3 7 9.4
1 1.2 0.0 3 7 9.4
2 1.55 0.0 3 7 9.4
# lloc lpopt rc5 dvloc0
4 5 1.1 0.0
# l nproj debl
0 2 1.0
1 2 0.8
2 2 0.8
# icmod fcfact rcfact
3 3.0 1.7
# epsh1 epsh2 depsh
-24.0 12.0 0.02
# rlmax drl
6.0 0.01
 0
]]>
</input-file>
</provenance>
<pseudo-atom-spec atomic-label="Fe" atomic-number="26" z-pseudo="16"
 flavor="Hamann&apos;s oncvpsp" relativity="dirac" spin-dft="no"
 core-corrections="yes">
<annotation pseudo-energy="-121.514752840" />
<exchange-correlation>
<annotation oncvpsp-xc-code="-116133" oncvpsp-xc-type="libxc-interface" />
<libxc-info number-of-functionals="2">
<functional name="Perdew, Burke &amp; Ernzerhof SOL (GGA)" type="exchange"
 id="116" />
<functional name="Perdew, Burke &amp; Ernzerhof SOL (GGA)" type="correlation"
 id="133" />
</libxc-info>
</exchange-correlation>
<valence-configuration total-valence-charge="16">
<shell n="3" l="s" occupation="2" />
<shell n="3" l="p" occupation="6" />
<shell n="3" l="d" occupation="6" />
<shell n="4" l="s" occupation="2" />
</valence-configuration>
</pseudo-atom-spec>
<grid npts="457">
<annotation type="sampled from oncvpsp log grid"
 recipe="r(i:1..N) = r1*exp(a*(i-1)) + r=0; resampled"
 recipe-cont="r1: scale; a: step" scale="0.192307692308E-04"
 step="0.119285708653E-01" delta="0.500000000000E-02" rmax="44.2248135897" />
<grid-data>
  0.000000000000E+00  5.050053692967E-03  1.008708593772E-02  1.513223739776E-02
  2.014816255451E-02  2.527348802918E-02  3.058816214668E-02  3.571906205505E-02
  4.072730601400E-02  4.588712082187E-02  5.108759065353E-02  5.620300303659E-02
  6.183062285620E-02  6.721515569429E-02  7.306860171076E-02  7.848991730107E-02
  8.431346671058E-02  8.949515180459E-02  9.499528970881E-02  1.008334516999E-01
  1.070304118539E-01  1.122610879123E-01  1.177473919885E-01  1.235018168622E-01
  1.295374658469E-01  1.358680826271E-01  1.425080825541E-01  1.477001832717E-01
  1.530814515745E-01  1.586587795431E-01  1.644393103617E-01  1.704304474680E-01
  1.766398640339E-01  1.830755127941E-01  1.897456362307E-01  1.966587771303E-01
  2.038237895251E-01  2.112498500326E-01  2.163502664118E-01  2.215738272440E-01
  2.269235057290E-01  2.324023468513E-01  2.380134691137E-01  2.437600663120E-01
  2.496454093530E-01  2.556728481164E-01  2.618458133614E-01  2.681678186792E-01
  2.746424624934E-01  2.812734301078E-01  2.880644958043E-01  2.950195249910E-01
  3.021424764024E-01  3.094374043527E-01  3.169084610433E-01  3.245598989268E-01
  3.323960731265E-01  3.404214439160E-01  3.486405792579E-01  3.570581574035E-01
  3.656789695559E-01  3.745079225969E-01  3.835500418800E-01  3.928104740912E-01
  4.022944901776E-01  4.120074883485E-01  4.219549971472E-01  4.270184571129E-01
  4.321426785983E-01  4.373283907415E-01  4.425763314304E-01  4.478872474075E-01
  4.532618943764E-01  4.587010371089E-01  4.642054495543E-01  4.697759149489E-01
  4.754132259283E-01  4.811181846394E-01  4.868916028551E-01  4.927343020894E-01
  4.986471137144E-01  5.046308790790E-01  5.106864496280E-01  5.168146870235E-01
  5.230164632678E-01  5.292926608270E-01  5.356441727569E-01  5.420719028300E-01
  5.485767656640E-01  5.551596868519E-01  5.618216030941E-01  5.685634623313E-01
  5.753862238793E-01  5.822908585658E-01  5.892783488686E-01  5.963496890550E-01
  6.035058853237E-01  6.107479559476E-01  6.180769314189E-01  6.254938545960E-01
  6.329997808511E-01  6.405957782213E-01  6.482829275600E-01  6.560623226907E-01
  6.639350705630E-01  6.719022914097E-01  6.799651189067E-01  6.881247003335E-01
  6.963821967375E-01  7.047387830984E-01  7.131956484956E-01  7.217539962775E-01
  7.304150442328E-01  7.391800247636E-01  7.480501850608E-01  7.570267872815E-01
  7.661111087289E-01  7.753044420337E-01  7.846080953381E-01  7.940233924821E-01
  8.035516731919E-01  8.131942932702E-01  8.229526247895E-01  8.328280562869E-01
  8.428219929624E-01  8.529358568779E-01  8.631710871605E-01  8.735291402064E-01
  8.840114898889E-01  8.946196277675E-01  9.053550633007E-01  9.162193240603E-01
  9.272139559491E-01  9.383405234205E-01  9.496006097015E-01  9.609958170179E-01
  9.725277668221E-01  9.841981000240E-01  9.960084772243E-01  1.007960578951E+00
  1.020056105898E+00  1.032296779169E+00  1.044684340519E+00  1.057220552605E+00
  1.069907199237E+00  1.082746085628E+00  1.095739038655E+00  1.108887907119E+00
  1.122194562004E+00  1.135660896748E+00  1.149288827509E+00  1.163080293440E+00
  1.177037256961E+00  1.191161704044E+00  1.205455644493E+00  1.219921112227E+00
  1.234560165573E+00  1.249374887560E+00  1.264367386211E+00  1.279539794846E+00
  1.294894272384E+00  1.310433003652E+00  1.326158199696E+00  1.342072098093E+00
  1.358176963270E+00  1.374475086829E+00  1.390968787871E+00  1.407660413325E+00
  1.424552338285E+00  1.441646966345E+00  1.458946729941E+00  1.476454090700E+00
  1.494171539788E+00  1.512101598266E+00  1.530246817445E+00  1.548609779254E+00
  1.567193096605E+00  1.585999413765E+00  1.605031406730E+00  1.624291783611E+00
  1.643783285014E+00  1.663508684434E+00  1.683470788647E+00  1.703672438111E+00
  1.724116507368E+00  1.744805905457E+00  1.765743576322E+00  1.786932499238E+00
  1.808375689229E+00  1.830076197500E+00  1.852037111870E+00  1.874261557212E+00
  1.896752695899E+00  1.919513728250E+00  1.942547892989E+00  1.965858467705E+00
  1.989448769317E+00  2.013322154549E+00  2.037482020403E+00  2.061931804648E+00
  2.086674986304E+00  2.111715086140E+00  2.137055667173E+00  2.162700335179E+00
  2.188652739202E+00  2.214916572072E+00  2.241495570937E+00  2.268393517788E+00
  2.295614240002E+00  2.323161610882E+00  2.351039550212E+00  2.379252024815E+00
  2.407803049112E+00  2.436696685702E+00  2.465937045930E+00  2.495528290481E+00
  2.525474629967E+00  2.555780325527E+00  2.586449689433E+00  2.617487085706E+00
  2.648896930735E+00  2.680683693904E+00  2.712851898230E+00  2.745406121009E+00
  2.778350994461E+00  2.811691206395E+00  2.845431500872E+00  2.879576678882E+00
  2.914131599029E+00  2.949101178217E+00  2.984490392356E+00  3.020304277064E+00
  3.056547928389E+00  3.093226503529E+00  3.130345221572E+00  3.167909364230E+00
  3.205924276601E+00  3.244395367920E+00  3.283328112335E+00  3.322728049683E+00
  3.362600786280E+00  3.402951995715E+00  3.443787419664E+00  3.485112868700E+00
  3.526934223124E+00  3.569257433801E+00  3.612088523007E+00  3.655433585283E+00
  3.699298788307E+00  3.743690373766E+00  3.788614658251E+00  3.834078034150E+00
  3.880086970560E+00  3.926648014207E+00  3.973767790377E+00  4.021453003862E+00
  4.069710439908E+00  4.118546965187E+00  4.167969528769E+00  4.217985163115E+00
  4.268600985072E+00  4.319824196893E+00  4.371662087256E+00  4.424122032303E+00
  4.477211496690E+00  4.530938034651E+00  4.585309291066E+00  4.640333002559E+00
  4.696016998590E+00  4.752369202573E+00  4.809397633004E+00  4.867110404600E+00
  4.925515729455E+00  4.984621918209E+00  5.044437381227E+00  5.104970629802E+00
  5.166230277360E+00  5.228225040688E+00  5.290963741176E+00  5.354455306070E+00
  5.418708769743E+00  5.483733274980E+00  5.549538074280E+00  5.616132531171E+00
  5.683526121545E+00  5.751728435004E+00  5.820749176224E+00  5.890598166338E+00
  5.961285344334E+00  6.032820768466E+00  6.105214617688E+00  6.178477193100E+00
  6.252618919418E+00  6.327650346451E+00  6.403582150608E+00  6.480425136415E+00
  6.558190238052E+00  6.636888520909E+00  6.716531183160E+00  6.797129557358E+00
  6.878695112046E+00  6.961239453391E+00  7.044774326831E+00  7.129311618753E+00
  7.214863358178E+00  7.301441718476E+00  7.389059019098E+00  7.477727727327E+00
  7.567460460055E+00  7.658269985576E+00  7.750169225403E+00  7.843171256108E+00
  7.937289311181E+00  8.032536782915E+00  8.128927224310E+00  8.226474351002E+00
  8.325192043214E+00  8.425094347732E+00  8.526195479905E+00  8.628509825664E+00
  8.732051943572E+00  8.836836566895E+00  8.942878605698E+00  9.050193148966E+00
  9.158795466753E+00  9.268701012355E+00  9.379925424503E+00  9.492484529597E+00
  9.606394343952E+00  9.721671076079E+00  9.838331128992E+00  9.956391102540E+00
  1.007586779577E+01  1.019677820932E+01  1.031913954783E+01  1.044296922241E+01
  1.056828485307E+01  1.069510427131E+01  1.082344552257E+01  1.095332686884E+01
  1.108476679126E+01  1.121778399276E+01  1.135239740067E+01  1.148862616948E+01
  1.162648968351E+01  1.176600755972E+01  1.190719965043E+01  1.205008604624E+01
  1.219468707879E+01  1.234102332374E+01  1.248911560362E+01  1.263898499087E+01
  1.279065281076E+01  1.294414064449E+01  1.309947033222E+01  1.325666397621E+01
  1.341574394392E+01  1.357673287125E+01  1.373965366570E+01  1.390452950969E+01
  1.407138386381E+01  1.424024047017E+01  1.441112335582E+01  1.458405683609E+01
  1.475906551812E+01  1.493617430434E+01  1.511540839599E+01  1.529679329674E+01
  1.548035481630E+01  1.566611907410E+01  1.585411250299E+01  1.604436185302E+01
  1.623689419526E+01  1.643173692560E+01  1.662891776871E+01  1.682846478193E+01
  1.703040635932E+01  1.723477123563E+01  1.744158849046E+01  1.765088755234E+01
  1.786269820297E+01  1.807705058140E+01  1.829397518838E+01  1.851350289064E+01
  1.873566492533E+01  1.896049290443E+01  1.918801881929E+01  1.941827504512E+01
  1.965129434566E+01  1.988710987781E+01  2.012575519634E+01  2.036726425870E+01
  2.061167142980E+01  2.085901148696E+01  2.110931962480E+01  2.136263146030E+01
  2.161898303782E+01  2.187841083428E+01  2.214095176429E+01  2.240664318546E+01
  2.267552290369E+01  2.294762917853E+01  2.322300072867E+01  2.350167673742E+01
  2.378369685827E+01  2.406910122057E+01  2.435793043521E+01  2.465022560043E+01
  2.494602830764E+01  2.524538064733E+01  2.554832521510E+01  2.585490511768E+01
  2.616516397909E+01  2.647914594684E+01  2.679689569820E+01  2.711845844658E+01
  2.744387994794E+01  2.777320650732E+01  2.810648498540E+01  2.844376280523E+01
  2.878508795889E+01  2.913050901440E+01  2.948007512257E+01  2.983383602404E+01
  3.019184205633E+01  3.055414416101E+01  3.092079389094E+01  3.129184341763E+01
  3.166734553864E+01  3.204735368511E+01  3.243192192933E+01  3.282110499248E+01
  3.321495825239E+01  3.361353775142E+01  3.401690020443E+01  3.442510300689E+01
  3.483820424297E+01  3.525626269389E+01  3.567933784621E+01  3.610748990037E+01
  3.654077977917E+01  3.697926913652E+01  3.742302036616E+01  3.787209661055E+01
  3.832656176988E+01  3.878648051112E+01  3.925191827725E+01  3.972294129658E+01
  4.019961659214E+01  4.068201199124E+01  4.117019613514E+01  4.166423848876E+01
  4.216420935063E+01  4.267017986283E+01  4.318222202119E+01  4.370040868544E+01
  4.422481358967E+01
</grid-data>
</grid>
<valence-charge total-charge="16" is-unscreening-charge="yes"
 rescaled-to-z-pseudo="no">
<radfunc>
<data npts="457">
  9.999047519837E+00  1.000535569598E+01  1.002420989143E+01  1.005565506914E+01
  1.009935367668E+01  1.015677559313E+01  1.022989794911E+01  1.031354514681E+01
  1.040748992537E+01  1.051690037151E+01  1.064003839198E+01  1.077365652522E+01
  1.093482878254E+01  1.110278984246E+01  1.130044069925E+01  1.149730577346E+01
  1.172334218138E+01  1.193694645833E+01  1.217631480059E+01  1.244436547735E+01
  1.274429499452E+01  1.300952409613E+01  1.329930236307E+01  1.361567291887E+01
  1.396079869303E+01  1.433695744599E+01  1.474653302232E+01  1.507713125711E+01
  1.542899085511E+01  1.580320202774E+01  1.620086474364E+01  1.662307946796E+01
  1.707093591885E+01  1.754549955443E+01  1.804779547599E+01  1.857878940566E+01
  1.913936537109E+01  1.973029970703E+01  2.014144370953E+01  2.056651586387E+01
  2.100562533172E+01  2.145883668949E+01  2.192616391021E+01  2.240756384760E+01
  2.290292920489E+01  2.341208097447E+01  2.393476033923E+01  2.447062003212E+01
  2.501921515840E+01  2.557999349336E+01  2.615228527998E+01  2.673529256337E+01
  2.732807811462E+01  2.792955401450E+01  2.853846998816E+01  2.915340160596E+01
  2.977273849256E+01  3.039467271660E+01  3.101718756746E+01  3.163804696258E+01
  3.225478576924E+01  3.286470136808E+01  3.346484683138E+01  3.405202613624E+01
  3.462279188063E+01  3.517344601712E+01  3.570004416288E+01  3.595302425450E+01
  3.619840408376E+01  3.643562588504E+01  3.666411898078E+01  3.688330050506E+01
  3.709257622755E+01  3.729134148307E+01  3.747898221120E+01  3.765487611098E+01
  3.781839391470E+01  3.796890078502E+01  3.810575783892E+01  3.822832380165E+01
  3.833595679333E+01  3.842801624997E+01  3.850386498024E+01  3.856287135828E+01
  3.860441165198E+01  3.862787248506E+01  3.863265343024E+01  3.861816972947E+01
  3.858385513572E+01  3.852916486974E+01  3.845357868302E+01  3.835660401727E+01
  3.823777924829E+01  3.809667700068E+01  3.793290751793E+01  3.774612207019E+01
  3.753601638032E+01  3.730233404671E+01  3.704486993919E+01  3.676347354271E+01
  3.645805222121E+01  3.612857437235E+01  3.577507244233E+01  3.539764576814E+01
  3.499646321330E+01  3.457176556244E+01  3.412386763864E+01  3.365316010768E+01
  3.316011093264E+01  3.264526644316E+01  3.210925198424E+01  3.155277211078E+01
  3.097661029615E+01  3.038162812539E+01  2.976876394679E+01  2.913903095943E+01
  2.849351471845E+01  2.783337004494E+01  2.715981733306E+01  2.647413825289E+01
  2.577767085483E+01  2.507180408801E+01  2.435797175348E+01  2.363764592041E+01
  2.291232984219E+01  2.218355041741E+01  2.145285024895E+01  2.072177936259E+01
  1.999188665401E+01  1.926471114043E+01  1.854177309918E+01  1.782456518109E+01
  1.711454359107E+01  1.641311943080E+01  1.572165030078E+01  1.504143225831E+01
  1.437369222694E+01  1.371958094923E+01  1.308016656955E+01  1.245642892701E+01
  1.184925462957E+01  1.125943297053E+01  1.068765273669E+01  1.013449994475E+01
  9.600456528524E+00  9.085899984968E+00  8.591103972383E+00  8.116239839021E+00
  7.661379046157E+00  7.226496436160E+00  6.811474284334E+00  6.416107062772E+00
  6.040106835070E+00  5.683109193656E+00  5.344679647495E+00  5.024328105041E+00
  4.721541419941E+00  4.435780030586E+00  4.166462703362E+00  3.912975410429E+00
  3.674670616351E+00  3.450880127540E+00  3.240928285431E+00  3.044134967928E+00
  2.859820259636E+00  2.687308694473E+00  2.525933135787E+00  2.375038276679E+00
  2.233983758239E+00  2.102146907783E+00  1.978925102415E+00  1.863737765360E+00
  1.756028003371E+00  1.655263893488E+00  1.560939426664E+00  1.472575114727E+00
  1.389718266124E+00  1.311958362427E+00  1.238974746084E+00  1.170497212084E+00
  1.106256881856E+00  1.045997199076E+00  9.894737573197E-01  9.364540904819E-01
  8.867174302904E-01  8.400544350494E-01  7.962668935722E-01  7.551674080571E-01
  7.165790594426E-01  6.803350585612E-01  6.462783861795E-01  6.142614247779E-01
  5.841455846952E-01  5.558009270296E-01  5.291057854641E-01  5.039463889679E-01
  4.802164871194E-01  4.578169796023E-01  4.366555512439E-01  4.166463137991E-01
  3.977094555268E-01  3.797708994674E-01  3.627619711950E-01  3.466190767042E-01
  3.312833909777E-01  3.167005576785E-01  3.028204003188E-01  2.895966451662E-01
  2.769866560643E-01  2.649511812706E-01  2.534541123383E-01  2.424622550047E-01
  2.319451119853E-01  2.218746775192E-01  2.122252434582E-01  2.029732166513E-01
  1.940969473350E-01  1.855765682074E-01  1.773938438396E-01  1.695320300510E-01
  1.619757428637E-01  1.547108366336E-01  1.477242909507E-01  1.410041058960E-01
  1.345392052406E-01  1.283193471740E-01  1.223350421552E-01  1.165774774833E-01
  1.110384481955E-01  1.057102939087E-01  1.005858412326E-01  9.565835139359E-02
  9.092147272220E-02  8.636919767007E-02  8.199582403563E-02  7.779592009235E-02
  7.376429332722E-02  6.989596251150E-02  6.618613283983E-02  6.263017388809E-02
  5.922360015433E-02  5.596205396115E-02  5.284129051160E-02  4.985716490436E-02
  4.700562092739E-02  4.428268146275E-02  4.168444034797E-02  3.920705555260E-02
  3.684674354078E-02  3.459977470247E-02  3.246246974144E-02  3.043119695915E-02
  2.850237027991E-02  2.667244801071E-02  2.493793223289E-02  2.329536876988E-02
  2.174134767415E-02  2.027250417973E-02  1.888552006919E-02  1.757712540520E-02
  1.634410057670E-02  1.518327860938E-02  1.409154768898E-02  1.306585384485E-02
  1.210320374025E-02  1.120066751524E-02  1.035538162855E-02  9.564551645406E-03
  8.825454921058E-03  8.135443132119E-03  7.491944612498E-03  6.892466455241E-03
  6.334596347355E-03  5.816004110766E-03  5.334442928975E-03  4.887750245474E-03
  4.473848326395E-03  4.090744485947E-03  3.736530978937E-03  3.409384569750E-03
  3.107565791715E-03  2.829417914584E-03  2.573365640988E-03  2.337913555128E-03
  2.121644348691E-03  1.923216850086E-03  1.741363883562E-03  1.574889984745E-03
  1.422668998651E-03  1.283641585285E-03  1.156812656766E-03  1.041248768366E-03
  9.360754842104E-04  8.404747365196E-04  7.536821953582E-04  6.749846639038E-04
  6.037175122935E-04  5.392621611995E-04  4.810436244621E-04  4.285281183921E-04
  3.812207437632E-04  3.386632450743E-04  3.004318503734E-04  2.661351938038E-04
  2.354123220651E-04  2.079307851643E-04  1.833848111603E-04  1.614935640641E-04
  1.419994836362E-04  1.246667055036E-04  1.092795597833E-04  9.564114623776E-05
  8.357198388223E-05  7.290873289396E-05  6.350298664301E-05  5.522013164638E-05
  4.793827324558E-05  4.154722481105E-05  3.594755828237E-05  3.104971385733E-05
  2.677316664556E-05  2.304564810152E-05  1.980242004904E-05  1.698559910577E-05
  1.454352931139E-05  1.243020076148E-05  1.060471204901E-05  9.030774320497E-06
  7.676254764394E-06  6.512757365827E-06  5.515238786348E-06  4.661657258741E-06
  3.932652426423E-06  3.311254103894E-06  2.782617988882E-06  2.333786417745E-06
  1.953472322626E-06  1.631864621098E-06  1.360453345652E-06  1.131872900572E-06
  9.397619165576E-07  7.786382577302E-07  6.437878205749E-07  5.311658577316E-07
  4.373096042885E-07  3.592612034668E-07  2.944996491601E-07  2.408813359242E-07
  1.965875781898E-07  1.600788377828E-07  1.300549431124E-07  1.054204525344E-07
  8.525458958613E-08  6.878522657975E-08  5.536643292203E-08  4.445915051879E-08
  3.561460362326E-08  2.846009331126E-08  2.268686565703E-08  1.803977814915E-08
  1.430852108137E-08  1.132017976541E-08  8.932949633886E-09  7.030839829370E-09
  5.519221906756E-09  4.321099007160E-09  3.373987482289E-09  2.627317643789E-09
  2.040273261492E-09  1.580000782622E-09  1.217897692721E-09  9.379180207363E-10
  7.202265217620E-10  5.514540151505E-10  4.209892989750E-10  3.204348592514E-10
  2.431647243190E-10  1.839663811606E-10  1.387516566830E-10  1.043240009501E-10
  7.819175211365E-11  5.841876844588E-11  4.350532916447E-11  3.229347460727E-11
  2.389201439607E-11  1.761731145140E-11  1.294667772873E-11  9.481818208676E-12
  6.920253493012E-12  5.033055879904E-12  3.647563963531E-12  2.634009308130E-12
  1.895206300326E-12  1.358631902285E-12  9.703632664570E-13  6.904543337104E-13
  4.894228582039E-13  3.455911182761E-13  2.430804540529E-13  1.703046495334E-13
  1.188424438095E-13  8.259706070694E-14  5.717216663119E-14  3.941037577334E-14
  2.705334261269E-14  1.849243155590E-14  1.258658370134E-14  8.529827265266E-15
  5.755308525913E-15  3.866074304531E-15  2.585365360682E-15  1.721077562853E-15
  1.140465385888E-15  7.522167409125E-16  4.938088633304E-16  3.226303742734E-16
  2.097767219444E-16  1.357343894777E-16  8.739319750410E-17  5.598797665022E-17
  3.568743080337E-17  2.263147216243E-17  1.427777926109E-17  8.960492054070E-18
  5.593698673794E-18  3.473238720531E-18  2.144917379404E-18  1.317342010944E-18
  8.045812080957E-19  4.886473857448E-19  2.950844050297E-19  1.771708204816E-19
  1.057555848231E-19  6.275511844694E-20  3.701680268553E-20  2.170307969456E-20
  1.264692531904E-20  7.324157759933E-21  4.215093169814E-21  2.410463624939E-21
  1.369633973163E-21  7.731889281489E-22  0.000000000000E+00  0.000000000000E+00
  0.000000000000E+00  0.000000000000E+00  0.000000000000E+00  0.000000000000E+00
  0.000000000000E+00  0.000000000000E+00  0.000000000000E+00  0.000000000000E+00
  0.000000000000E+00  0.000000000000E+00  0.000000000000E+00  0.000000000000E+00
  0.000000000000E+00
</data>
</radfunc>
</valence-charge>
<pseudocore-charge matching-radius="0.421954997147"
 number-of-continuous-derivatives="4">
<annotation model-charge-form="Teter function with specified parameters" />
<radfunc>
<data npts="290">
  1.132382237580E+02  1.132204925768E+02  1.131674972978E+02  1.130791135933E+02
  1.129562935455E+02  1.127949106960E+02  1.125894153854E+02  1.123543600209E+02
  1.120903898335E+02  1.117829923875E+02  1.114370622351E+02  1.110617320571E+02
  1.106090582136E+02  1.101373781851E+02  1.095823962374E+02  1.090296957674E+02
  1.083951812331E+02  1.077956406909E+02  1.071238631140E+02  1.063716729262E+02
  1.055301108362E+02  1.047859701783E+02  1.039729936409E+02  1.030854351039E+02
  1.021171990225E+02  1.010618481223E+02  9.991261932891E+01  9.898485192769E+01
  9.799723247914E+01  9.694661180717E+01  9.582978502028E+01  9.464351008360E+01
  9.338453024087E+01  9.204960073826E+01  9.063552031920E+01  8.913916796783E+01
  8.755754537611E+01  8.588782559147E+01  8.472444090562E+01  8.352003833920E+01
  8.227398185096E+01  8.098571091995E+01  7.965475081921E+01  7.828072353467E+01
  7.686335931672E+01  7.540250884194E+01  7.389815595055E+01  7.235043091147E+01
  7.075962415177E+01  6.912620036937E+01  6.745081292911E+01  6.573431842010E+01
  6.397779122949E+01  6.218253796158E+01  6.035011150449E+01  5.848232451718E+01
  5.658126207956E+01  5.464929321742E+01  5.268908098224E+01  5.070359073549E+01
  4.869609625718E+01  4.667018327155E+01  4.462974995990E+01  4.257900401225E+01
  4.052245575941E+01  3.846490692495E+01  3.641143454627E+01  3.538788374641E+01
  3.436736963714E+01  3.335059385270E+01  3.233827020287E+01  3.133112349825E+01
  3.032988827649E+01  2.933530742827E+01  2.834813072267E+01  2.736911323197E+01
  2.639901365629E+01  2.543859254956E+01  2.448861044861E+01  2.354982590812E+01
  2.262299344490E+01  2.170886139590E+01  2.080816969503E+01  1.992164757513E+01
  1.905001120204E+01  1.819396124904E+01  1.735418042075E+01  1.653133093675E+01
  1.572605198617E+01  1.493895716568E+01  1.417063191416E+01  1.342163095870E+01
  1.269247578716E+01  1.198365216391E+01  1.129560770595E+01  1.062874953759E+01
  9.983442042514E+00  9.360004732688E+00  8.758710254057E+00  8.179782549253E+00
  7.623395197705E+00  7.089669953474E+00  6.578675500911E+00  6.090426447680E+00
  5.624882574012E+00  5.181948356006E+00  4.761472779526E+00  4.363249459665E+00
  3.987017078885E+00  3.632460154755E+00  3.299210145758E+00  2.986846900837E+00
  2.694900455328E+00  2.422853172567E+00  2.170142226911E+00  1.936162420095E+00
  1.720269318877E+00  1.521782697812E+00  1.339990266781E+00  1.174151658659E+00
  1.023502648329E+00  8.872595701136E-01  7.646238968225E-01  6.547869399412E-01
  5.569346271954E-01  4.702523108710E-01  3.939295579284E-01  3.271648712326E-01
  2.691702901865E-01  2.191758187949E-01  1.764336297561E-01  1.402219946380E-01
  1.098488925817E-01  8.465525330487E-02  6.401779446558E-02  4.735141865321E-02
  3.411114136890E-02  2.379352826107E-02  1.593762749773E-02  1.012539135907E-02
  5.981589770066E-03  3.173227386286E-03  1.408484797918E-03  4.352132113357E-04
  3.902037393240E-05  4.099329050087E-05  2.951102016492E-04  6.854001286448E-04
  1.122912823521E-03  1.542565013018E-03  1.899930239765E-03  2.168039277567E-03
  2.334255975146E-03  2.397289467958E-03  2.364398058203E-03  2.248832832392E-03
  2.067560463946E-03  1.839294898784E-03  1.582857065664E-03  1.315870758923E-03
  1.053791813078E-03  8.092570493215E-04  5.917296469583E-04  4.074089822603E-04
  2.593659462395E-04  1.478596029861E-04  7.078800166960E-05  2.422513055041E-05
  2.997412741301E-06  1.256686443334E-06  1.301206534434E-05  3.259010627442E-05
  5.500089446293E-05  7.619649244872E-05  9.321714360631E-05  1.042291223522E-04
  1.084656548632E-04  1.060884363462E-04  9.799158405835E-05  8.557216056299E-05
  7.049160236269E-05  5.445058065425E-05  3.899624855490E-05  2.537588049582E-05
  1.444508447896E-05  6.632636209624E-06  1.958133915834E-06  9.365498698779E-08
  4.568696711746E-07  2.320952654046E-06  4.926275315575E-06  7.580212251011E-06
  9.734218330708E-06  1.103122606756E-05  1.132085784212E-05  1.064436775799E-05
  9.195063030406E-06  7.262732035841E-06  5.172003803384E-06  3.224456299811E-06
  1.652767938175E-06  5.925613799869E-07  7.427500653783E-08  0.000000000000E+00
  0.000000000000E+00  0.000000000000E+00  0.000000000000E+00  0.000000000000E+00
  0.000000000000E+00  0.000000000000E+00  0.000000000000E+00  0.000000000000E+00
  0.000000000000E+00  0.000000000000E+00  0.000000000000E+00  0.000000000000E+00
  0.000000000000E+00  0.000000000000E+00  0.000000000000E+00  0.000000000000E+00
  0.000000000000E+00  0.000000000000E+00  0.000000000000E+00  0.000000000000E+00
  0.000000000000E+00  0.000000000000E+00  0.000000000000E+00  0.000000000000E+00
  0.000000000000E+00  0.000000000000E+00  0.000000000000E+00  0.000000000000E+00
  0.000000000000E+00  0.000000000000E+00  0.000000000000E+00  0.000000000000E+00
  0.000000000000E+00  0.000000000000E+00  0.000000000000E+00  0.000000000000E+00
  0.000000000000E+00  0.000000000000E+00  0.000000000000E+00  0.000000000000E+00
  0.000000000000E+00  0.000000000000E+00  0.000000000000E+00  0.000000000000E+00
  0.000000000000E+00  0.000000000000E+00  0.000000000000E+00  0.000000000000E+00
  0.000000000000E+00  0.000000000000E+00  0.000000000000E+00  0.000000000000E+00
  0.000000000000E+00  0.000000000000E+00  0.000000000000E+00  0.000000000000E+00
  0.000000000000E+00  0.000000000000E+00  0.000000000000E+00  0.000000000000E+00
  0.000000000000E+00  0.000000000000E+00  0.000000000000E+00  0.000000000000E+00
  0.000000000000E+00  0.000000000000E+00  0.000000000000E+00  0.000000000000E+00
  0.000000000000E+00  0.000000000000E+00  0.000000000000E+00  0.000000000000E+00
  0.000000000000E+00  0.000000000000E+00  0.000000000000E+00  0.000000000000E+00
  0.000000000000E+00  0.000000000000E+00  0.000000000000E+00  0.000000000000E+00
  0.000000000000E+00  0.000000000000E+00  0.000000000000E+00  0.000000000000E+00
  0.000000000000E+00  0.000000000000E+00
</data>
</radfunc>
</pseudocore-charge>
<semilocal-potentials set="lj">
<slps n="3" l="s" j="0.5" rc="1.26436738621" eref="-3.44506390767">
<radfunc>
<data npts="290">
 -1.929916177555E+01 -1.929976650776E+01 -1.930157375966E+01 -1.930458750498E+01
 -1.930877481775E+01 -1.931427569262E+01 -1.932127826332E+01 -1.932928549678E+01
 -1.933827434599E+01 -1.934873747573E+01 -1.936050631177E+01 -1.937326829026E+01
 -1.938865023805E+01 -1.940466643411E+01 -1.942349590209E+01 -1.944223134331E+01
 -1.946371941346E+01 -1.948400248128E+01 -1.950670530141E+01 -1.953209500730E+01
 -1.956046236131E+01 -1.958551089175E+01 -1.961283834737E+01 -1.964262647034E+01
 -1.967506599484E+01 -1.971035578944E+01 -1.974870159919E+01 -1.977959318956E+01
 -1.981241246937E+01 -1.984724976110E+01 -1.988419474286E+01 -1.992333544048E+01
 -1.996475703391E+01 -2.000854045470E+01 -2.005476074962E+01 -2.010348518401E+01
 -2.015477105697E+01 -2.020866319955E+01 -2.024605452228E+01 -2.028462199689E+01
 -2.032436581184E+01 -2.036528152696E+01 -2.040735952933E+01 -2.045058444926E+01
 -2.049493453497E+01 -2.054038098515E+01 -2.058688723861E+01 -2.063440822077E+01
 -2.068288954680E+01 -2.073226668212E+01 -2.078246406118E+01 -2.083339416614E+01
 -2.088495656790E+01 -2.093703693255E+01 -2.098950599741E+01 -2.104221852163E+01
 -2.109501221767E+01 -2.114770667091E+01 -2.120010225631E+01 -2.125197906218E+01
 -2.130309583272E+01 -2.135318894276E+01 -2.140197141955E+01 -2.144913202843E+01
 -2.149433444082E+01 -2.153721650500E+01 -2.157738964162E+01 -2.159633158919E+01
 -2.161443838819E+01 -2.163165385916E+01 -2.164792011812E+01 -2.166317757934E+01
 -2.167736496190E+01 -2.169041930038E+01 -2.170227595984E+01 -2.171286865549E+01
 -2.172212947714E+01 -2.172998891889E+01 -2.173637591416E+01 -2.174121787647E+01
 -2.174444074622E+01 -2.174596904372E+01 -2.174572592889E+01 -2.174363326780E+01
 -2.173961170651E+01 -2.173358075233E+01 -2.172545886309E+01 -2.171516354447E+01
 -2.170261145597E+01 -2.168771852555E+01 -2.167040007361E+01 -2.165057094631E+01
 -2.162814565874E+01 -2.160303854806E+01 -2.157516393711E+01 -2.154443630840E+01
 -2.151077048906E+01 -2.147408184660E+01 -2.143428649577E+01 -2.139130151656E+01
 -2.134504518329E+01 -2.129543720473E+01 -2.124239897508E+01 -2.118585383553E+01
 -2.112572734610E+01 -2.106194756706E+01 -2.099444534962E+01 -2.092315463486E+01
 -2.084801276016E+01 -2.076896077204E+01 -2.068594374426E+01 -2.059891109981E+01
 -2.050781693533E+01 -2.041262034634E+01 -2.031328575144E+01 -2.020978321370E+01
 -2.010208875709E+01 -1.999018467586E+01 -1.987405983456E+01 -1.975370995646E+01
 -1.962913789772E+01 -1.950035390514E+01 -1.936737585464E+01 -1.923022946823E+01
 -1.908894850691E+01 -1.894357493715E+01 -1.879415906887E+01 -1.864075966308E+01
 -1.848344400783E+01 -1.832228796164E+01 -1.815737596464E+01 -1.798880101845E+01
 -1.781666463760E+01 -1.764107677675E+01 -1.746215574059E+01 -1.728002808568E+01
 -1.709482852711E+01 -1.690669986649E+01 -1.671579296238E+01 -1.652226676945E+01
 -1.632628847806E+01 -1.612803379220E+01 -1.592768738994E+01 -1.572544361709E+01
 -1.552150747030E+01 -1.531609593163E+01 -1.510943971981E+01 -1.490178552549E+01
 -1.469339879737E+01 -1.448456714150E+01 -1.427560438516E+01 -1.406685555258E+01
 -1.385869964856E+01 -1.365155698071E+01 -1.344595286625E+01 -1.324251325777E+01