Si    ONCVPSP-3.3.0  r_core=   1.40591   1.60303   1.80612
14.0000     12.0000      180430    zatom,zion,pspd
8 -116133   2     4   600     0    pspcod,pspxc,lmax,lloc,mmax,r2well
5.99000000  0.00000000  0.00000000    rchrg fchrg qchrg
2     2     2     0    nproj
3     1           extension_switch
3     4     0    nprojso
0                        -1.7030257574624D+00  1.5382656465083D+00
1  0.0000000000000D+00  2.2008239675131D-10 -8.1707007826282D-10
2  1.0000000000000D-02  4.4711891702122D-02  1.2970946152080D-01
3  2.0000000000000D-02  8.9426060585006D-02  2.5865940318149D-01
4  3.0000000000000D-02  1.3414423643611D-01  3.8609514160835D-01
5  4.0000000000000D-02  1.7886706010904D-01  5.1127163425165D-01
6  5.0000000000000D-02  2.2359355363208D-01  6.3345821963298D-01
7  6.0000000000000D-02  2.6832060764998D-01  7.5194326197344D-01
8  7.0000000000000D-02  3.1304249171607D-01  8.6603866929064D-01
9  8.0000000000000D-02  3.5775039273186D-01  9.7508425486943D-01
10  9.0000000000000D-02  4.0243198655999D-01  1.0784519130240D+00
11  1.0000000000000D-01  4.4707104751735D-01  1.1755495812723D+00
12  1.1000000000000D-01  4.9164710009030D-01  1.2658249624315D+00
13  1.2000000000000D-01  5.3613511680785D-01  1.3487689817044D+00
14  1.3000000000000D-01  5.8050526576486D-01  1.4239189555601D+00
15  1.4000000000000D-01  6.2472271080987D-01  1.4908614510978D+00
16  1.5000000000000D-01  6.6874746690625D-01  1.5492348166203D+00
17  1.6000000000000D-01  7.1253431264572D-01  1.5987313663121D+00
18  1.7000000000000D-01  7.5603276134464D-01  1.6390992042131D+00
19  1.8000000000000D-01  7.9918709159176D-01  1.6701436750801D+00
20  1.9000000000000D-01  8.4193643754665D-01  1.6917284322264D+00
21  2.0000000000000D-01  8.8421493871549D-01  1.7037761150081D+00
22  2.1000000000000D-01  9.2595194836252D-01  1.7062686312697D+00
23  2.2000000000000D-01  9.6707229915451D-01  1.6992470427482D+00
24  2.3000000000000D-01  1.0074966240896D+00  1.6828110541587D+00
25  2.4000000000000D-01  1.0471417302344D+00  1.6571181094181D+00
26  2.5000000000000D-01  1.0859210222901D+00  1.6223821011925D+00
27  2.6000000000000D-01  1.1237449725352D+00  1.5788717026582D+00
28  2.7000000000000D-01  1.1605216332490D+00  1.5269083330358D+00
29  2.8000000000000D-01  1.1961571873218D+00  1.4668637710534D+00
30  2.9000000000000D-01  1.2305565323898D+00  1.3991574330270D+00
31  3.0000000000000D-01  1.2636238935210D+00  1.3242533346665D+00
32  3.1000000000000D-01  1.2952634592046D+00  1.2426567580296D+00
33  3.2000000000000D-01  1.3253800351779D+00  1.1549106472189D+00
34  3.3000000000000D-01  1.3538797104571D+00  1.0615917584423D+00
35  3.4000000000000D-01  1.3806705298210D+00  9.6330659190780D-01
36  3.5000000000000D-01  1.4056631669370D+00  8.6068713469466D-01
37  3.6000000000000D-01  1.4287715923111D+00  7.5438644520633D-01
38  3.7000000000000D-01  1.4499137302886D+00  6.4507411106571D-01
39  3.8000000000000D-01  1.4690120994351D+00  5.3343161333448D-01
40  3.9000000000000D-01  1.4859944307752D+00  4.2014763072355D-01
41  4.0000000000000D-01  1.5007942585711D+00  3.0591331799606D-01
42  4.1000000000000D-01  1.5133514785708D+00  1.9141759304142D-01
43  4.2000000000000D-01  1.5236128689501D+00  7.7342467111943D-02
44  4.3000000000000D-01  1.5315325695101D+00 -3.5641547541228D-02
45  4.4000000000000D-01  1.5370725150636D+00 -1.4687991892195D-01
46  4.5000000000000D-01  1.5402028193562D+00 -2.5573843251650D-01
47  4.6000000000000D-01  1.5409021063039D+00 -3.6160735264228D-01
48  4.7000000000000D-01  1.5391577857953D+00 -4.6390537739016D-01
49  4.8000000000000D-01  1.5349662717918D+00 -5.6208335821442D-01
50  4.9000000000000D-01  1.5283331409609D+00 -6.5562775704951D-01
51  5.0000000000000D-01  1.5192732305921D+00 -7.4406381589209D-01
52  5.1000000000000D-01  1.5078106750623D+00 -8.2695841606152D-01
53  5.2000000000000D-01  1.4939788806402D+00 -9.0392260682983D-01
54  5.3000000000000D-01  1.4778204389353D+00 -9.7461378576799D-01
55  5.4000000000000D-01  1.4593869798061D+00 -1.0387375159678D+00
56  5.5000000000000D-01  1.4387389650353D+00 -1.0960489682502D+00
57  5.6000000000000D-01  1.4159454245606D+00 -1.1463539795245D+00
58  5.7000000000000D-01  1.3910836375009D+00 -1.1895097215972D+00
59  5.8000000000000D-01  1.3642387606506D+00 -1.2254249779196D+00
60  5.9000000000000D-01  1.3355034075113D+00 -1.2540600289619D+00
61  6.0000000000000D-01  1.3049771812975D+00 -1.2754261501024D+00
62  6.1000000000000D-01  1.2727661656847D+00 -1.2895847290649D+00
63  6.2000000000000D-01  1.2389823773578D+00 -1.2966460130125D+00
64  6.3000000000000D-01  1.2037431846703D+00 -1.2967674983759D+00
65  6.4000000000000D-01  1.1671706969343D+00 -1.2901519793094D+00
66  6.5000000000000D-01  1.1293911290253D+00 -1.2770452733345D+00
67  6.6000000000000D-01  1.0905341461096D+00 -1.2577336451796D+00
68  6.7000000000000D-01  1.0507321933762D+00 -1.2325409520476D+00
69  6.8000000000000D-01  1.0101198156894D+00 -1.2018255355264D+00
70  6.9000000000000D-01  9.6883297206832D-01 -1.1659768870451D+00
71  7.0000000000000D-01  9.2700834984276D-01 -1.1254121151825D+00
72  7.1000000000000D-01  8.8478268324312D-01 -1.0805722442189D+00
73  7.2000000000000D-01  8.4229208104570D-01 -1.0319183740785D+00
74  7.3000000000000D-01  7.9967136772428D-01 -9.7992773222996D-01
75  7.4000000000000D-01  7.5705344235211D-01 -9.2508964818379D-01
76  7.5000000000000D-01  7.1456865926053D-01 -8.6790148095398D-01
77  7.6000000000000D-01  6.7234423419389D-01 -8.0886452923509D-01
78  7.7000000000000D-01  6.3050367940661D-01 -7.4847995308597D-01
79  7.8000000000000D-01  5.8916627083453D-01 -6.8724473463024D-01
80  7.9000000000000D-01  5.4844655013830D-01 -6.2564770368562D-01
81  8.0000000000000D-01  5.0845386406865D-01 -5.6416565234327D-01
82  8.1000000000000D-01  4.6929194324280D-01 -5.0325956035632D-01
83  8.2000000000000D-01  4.3105852205423D-01 -4.4337095079054D-01
84  8.3000000000000D-01  3.9384500106615D-01 -3.8491839276995D-01
85  8.4000000000000D-01  3.5773615286724D-01 -3.2829416534882D-01
86  8.5000000000000D-01  3.2280987199923D-01 -2.7386109359601D-01
87  8.6000000000000D-01  2.8913696920366D-01 -2.2194956492510D-01
88  8.7000000000000D-01  2.5678100988220D-01 -1.7285473058537D-01
89  8.8000000000000D-01  2.2579819632477D-01 -1.2683389408556D-01
90  8.9000000000000D-01  1.9623729293481D-01 -8.4104085195448D-02
91  9.0000000000000D-01  1.6813959337396D-01 -4.4839815104129D-02
92  9.1000000000000D-01  1.4153892826151D-01 -9.1710053482078D-03
93  9.2000000000000D-01  1.1646171179887D-01  2.2818919700405D-02
94  9.3000000000000D-01  9.2927025448165D-02  5.1094789639268D-02
95  9.4000000000000D-01  7.0946736577840D-02  7.5671309408835D-02
96  9.5000000000000D-01  5.0525649798081D-02  9.6614562681677D-02
97  9.6000000000000D-01  3.1661688545731D-02  1.1404341660232D-01
98  9.7000000000000D-01  1.4346104342749D-02  1.2813084878919D-01
99  9.8000000000000D-01 -1.4362885569881D-03  1.3910523014586D-01
100  9.9000000000000D-01 -1.5706856544280D-02  1.4725158450982D-01
101  1.0000000000000D+00 -2.8492889292324D-02  1.5291221229319D-01
102  1.0100000000000D+00 -3.9827223632520D-02  1.5649042362521D-01
103  1.0200000000000D+00 -4.9748456431616D-02  1.5843704172345D-01
104  1.0300000000000D+00 -5.8301679067114D-02  1.5921555982054D-01
105  1.0400000000000D+00 -6.5538776750557D-02  1.5926790422815D-01
106  1.0500000000000D+00 -7.1517653569784D-02  1.5900539462446D-01
107  1.0600000000000D+00 -7.6301529314806D-02  1.5879719362848D-01
108  1.0700000000000D+00 -7.9958204512974D-02  1.5895911298980D-01
109  1.0800000000000D+00 -8.2559305125614D-02  1.5974284825750D-01
110  1.0900000000000D+00 -8.4179503046388D-02  1.6132634096721D-01
111  1.1000000000000D+00 -8.4895715436856D-02  1.6380593551792D-01
112  1.1100000000000D+00 -8.4786287261707D-02  1.6719114600737D-01
113  1.1200000000000D+00 -8.3930166758848D-02  1.7140284391571D-01
114  1.1300000000000D+00 -8.2406088309525D-02  1.7627559403038D-01
115  1.1400000000000D+00 -8.0291781661171D-02  1.8156466240039D-01
116  1.1500000000000D+00 -7.7663230422710D-02  1.8695801715477D-01
117  1.1600000000000D+00 -7.4594005470728D-02  1.9209313721545D-01
118  1.1700000000000D+00 -7.1154697251549D-02  1.9657802069432D-01
119  1.1800000000000D+00 -6.7412468047659D-02  2.0001535887425D-01
120  1.1900000000000D+00 -6.3430740571185D-02  2.0202834355858D-01
121  1.2000000000000D+00 -5.9269027264620D-02  2.0228618261049D-01
122  1.2100000000000D+00 -5.4982894340713D-02  2.0052745280100D-01
123  1.2200000000000D+00 -5.0624048348415D-02  1.9657921335321D-01
124  1.2300000000000D+00 -4.6240514774579D-02  1.9037024435102D-01
125  1.2400000000000D+00 -4.1876877507858D-02  1.8193741939842D-01
126  1.2500000000000D+00 -3.7574542690620D-02  1.7142447113897D-01
127  1.2600000000000D+00 -3.3371987426347D-02  1.5907347683393D-01
128  1.2700000000000D+00 -2.9304965760039D-02  1.4521008513248D-01
129  1.2800000000000D+00 -2.5406644956048D-02  1.3022368783857D-01
130  1.2900000000000D+00 -2.1707658052150D-02  1.1454465040900D-01
131  1.3000000000000D+00 -1.8236074345156D-02  9.8620426694543D-02
132  1.3100000000000D+00 -1.5017288409785D-02  8.2892517393664D-02
133  1.3200000000000D+00 -1.2073847377465D-02  6.7776068210792D-02
134  1.3300000000000D+00 -9.4252341056546D-03  5.3642925829337D-02
135  1.3400000000000D+00 -7.0876279447471D-03  4.0809394760553D-02
136  1.3500000000000D+00 -5.0736665466783D-03  2.9528519869010D-02
137  1.3600000000000D+00 -3.3927126691480D-03  1.9990177124716D-02
138  1.3700000000000D+00 -2.0487001440118D-03  1.2308200937023D-02
139  1.3800000000000D+00 -1.0375558770746D-03  6.5037308100341D-03
140  1.3900000000000D+00 -3.7325816957318D-04  2.7141576786315D-03
141  1.4000000000000D+00 -4.6173270186635D-05  8.8617970022155D-04
142  1.4100000000000D+00  3.9319770941665D-05  2.1992097562821D-04
143  1.4200000000000D+00  1.1195697663563D-05  1.7982382373752D-05
144  1.4300000000000D+00 -9.4461849550452D-06 -6.1773228940618D-06
145  1.4400000000000D+00  6.2639263164278D-08  1.1936501023728D-07
146  1.4500000000000D+00  1.7399456157539D-06  2.5801946965017D-06
147  1.4600000000000D+00 -4.0844887147667D-08 -6.5627868484468D-07
148  1.4700000000000D+00 -5.1820372189364D-08 -8.3262822065455D-07
149  1.4800000000000D+00  0.0000000000000D+00  0.0000000000000D+00
150  1.4900000000000D+00  0.0000000000000D+00  0.0000000000000D+00
151  1.5000000000000D+00  0.0000000000000D+00  0.0000000000000D+00
152  1.5100000000000D+00  0.0000000000000D+00  0.0000000000000D+00
153  1.5200000000000D+00  0.0000000000000D+00  0.0000000000000D+00
154  1.5300000000000D+00  0.0000000000000D+00  0.0000000000000D+00
155  1.5400000000000D+00  0.0000000000000D+00  0.0000000000000D+00
156  1.5500000000000D+00  0.0000000000000D+00  0.0000000000000D+00
157  1.5600000000000D+00  0.0000000000000D+00  0.0000000000000D+00
158  1.5700000000000D+00  0.0000000000000D+00  0.0000000000000D+00
159  1.5800000000000D+00  0.0000000000000D+00  0.0000000000000D+00
160  1.5900000000000D+00  0.0000000000000D+00  0.0000000000000D+00
161  1.6000000000000D+00  0.0000000000000D+00  0.0000000000000D+00
162  1.6100000000000D+00  0.0000000000000D+00  0.0000000000000D+00
163  1.6200000000000D+00  0.0000000000000D+00  0.0000000000000D+00
164  1.6300000000000D+00  0.0000000000000D+00  0.0000000000000D+00
165  1.6400000000000D+00  0.0000000000000D+00  0.0000000000000D+00
166  1.6500000000000D+00  0.0000000000000D+00  0.0000000000000D+00
167  1.6600000000000D+00  0.0000000000000D+00  0.0000000000000D+00
168  1.6700000000000D+00  0.0000000000000D+00  0.0000000000000D+00
169  1.6800000000000D+00  0.0000000000000D+00  0.0000000000000D+00
170  1.6900000000000D+00  0.0000000000000D+00  0.0000000000000D+00
171  1.7000000000000D+00  0.0000000000000D+00  0.0000000000000D+00
172  1.7100000000000D+00  0.0000000000000D+00  0.0000000000000D+00
173  1.7200000000000D+00  0.0000000000000D+00  0.0000000000000D+00
174  1.7300000000000D+00  0.0000000000000D+00  0.0000000000000D+00
175  1.7400000000000D+00  0.0000000000000D+00  0.0000000000000D+00
176  1.7500000000000D+00  0.0000000000000D+00  0.0000000000000D+00
177  1.7600000000000D+00  0.0000000000000D+00  0.0000000000000D+00
178  1.7700000000000D+00  0.0000000000000D+00  0.0000000000000D+00
179  1.7800000000000D+00  0.0000000000000D+00  0.0000000000000D+00
180  1.7900000000000D+00  0.0000000000000D+00  0.0000000000000D+00
181  1.8000000000000D+00  0.0000000000000D+00  0.0000000000000D+00
182  1.8100000000000D+00  0.0000000000000D+00  0.0000000000000D+00
183  1.8200000000000D+00  0.0000000000000D+00  0.0000000000000D+00
184  1.8300000000000D+00  0.0000000000000D+00  0.0000000000000D+00
185  1.8400000000000D+00  0.0000000000000D+00  0.0000000000000D+00
186  1.8500000000000D+00  0.0000000000000D+00  0.0000000000000D+00
187  1.8600000000000D+00  0.0000000000000D+00  0.0000000000000D+00
188  1.8700000000000D+00  0.0000000000000D+00  0.0000000000000D+00
189  1.8800000000000D+00  0.0000000000000D+00  0.0000000000000D+00
190  1.8900000000000D+00  0.0000000000000D+00  0.0000000000000D+00
191  1.9000000000000D+00  0.0000000000000D+00  0.0000000000000D+00
192  1.9100000000000D+00  0.0000000000000D+00  0.0000000000000D+00
193  1.9200000000000D+00  0.0000000000000D+00  0.0000000000000D+00
194  1.9300000000000D+00  0.0000000000000D+00  0.0000000000000D+00
195  1.9400000000000D+00  0.0000000000000D+00  0.0000000000000D+00
196  1.9500000000000D+00  0.0000000000000D+00  0.0000000000000D+00
197  1.9600000000000D+00  0.0000000000000D+00  0.0000000000000D+00
198  1.9700000000000D+00  0.0000000000000D+00  0.0000000000000D+00
199  1.9800000000000D+00  0.0000000000000D+00  0.0000000000000D+00
200  1.9900000000000D+00  0.0000000000000D+00  0.0000000000000D+00
201  2.0000000000000D+00  0.0000000000000D+00  0.0000000000000D+00
202  2.0100000000000D+00  0.0000000000000D+00  0.0000000000000D+00
203  2.0200000000000D+00  0.0000000000000D+00  0.0000000000000D+00
204  2.0300000000000D+00  0.0000000000000D+00  0.0000000000000D+00
205  2.0400000000000D+00  0.0000000000000D+00  0.0000000000000D+00
206  2.0500000000000D+00  0.0000000000000D+00  0.0000000000000D+00
207  2.0600000000000D+00  0.0000000000000D+00  0.0000000000000D+00
208  2.0700000000000D+00  0.0000000000000D+00  0.0000000000000D+00
209  2.0800000000000D+00  0.0000000000000D+00  0.0000000000000D+00
210  2.0900000000000D+00  0.0000000000000D+00  0.0000000000000D+00
211  2.1000000000000D+00  0.0000000000000D+00  0.0000000000000D+00
212  2.1100000000000D+00  0.0000000000000D+00  0.0000000000000D+00
213  2.1200000000000D+00  0.0000000000000D+00  0.0000000000000D+00
214  2.1300000000000D+00  0.0000000000000D+00  0.0000000000000D+00
215  2.1400000000000D+00  0.0000000000000D+00  0.0000000000000D+00
216  2.1500000000000D+00  0.0000000000000D+00  0.0000000000000D+00
217  2.1600000000000D+00  0.0000000000000D+00  0.0000000000000D+00
218  2.1700000000000D+00  0.0000000000000D+00  0.0000000000000D+00
219  2.1800000000000D+00  0.0000000000000D+00  0.0000000000000D+00
220  2.1900000000000D+00  0.0000000000000D+00  0.0000000000000D+00
221  2.2000000000000D+00  0.0000000000000D+00  0.0000000000000D+00
222  2.2100000000000D+00  0.0000000000000D+00  0.0000000000000D+00
223  2.2200000000000D+00  0.0000000000000D+00  0.0000000000000D+00
224  2.2300000000000D+00  0.0000000000000D+00  0.0000000000000D+00
225  2.2400000000000D+00  0.0000000000000D+00  0.0000000000000D+00
226  2.2500000000000D+00  0.0000000000000D+00  0.0000000000000D+00
227  2.2600000000000D+00  0.0000000000000D+00  0.0000000000000D+00
228  2.2700000000000D+00  0.0000000000000D+00  0.0000000000000D+00
229  2.2800000000000D+00  0.0000000000000D+00  0.0000000000000D+00
230  2.2900000000000D+00  0.0000000000000D+00  0.0000000000000D+00
231  2.3000000000000D+00  0.0000000000000D+00  0.0000000000000D+00
232  2.3100000000000D+00  0.0000000000000D+00  0.0000000000000D+00
233  2.3200000000000D+00  0.0000000000000D+00  0.0000000000000D+00
234  2.3300000000000D+00  0.0000000000000D+00  0.0000000000000D+00
235  2.3400000000000D+00  0.0000000000000D+00  0.0000000000000D+00
236  2.3500000000000D+00  0.0000000000000D+00  0.0000000000000D+00
237  2.3600000000000D+00  0.0000000000000D+00  0.0000000000000D+00
238  2.3700000000000D+00  0.0000000000000D+00  0.0000000000000D+00
239  2.3800000000000D+00  0.0000000000000D+00  0.0000000000000D+00
240  2.3900000000000D+00  0.0000000000000D+00  0.0000000000000D+00
241  2.4000000000000D+00  0.0000000000000D+00  0.0000000000000D+00
242  2.4100000000000D+00  0.0000000000000D+00  0.0000000000000D+00
243  2.4200000000000D+00  0.0000000000000D+00  0.0000000000000D+00
244  2.4300000000000D+00  0.0000000000000D+00  0.0000000000000D+00
245  2.4400000000000D+00  0.0000000000000D+00  0.0000000000000D+00
246  2.4500000000000D+00  0.0000000000000D+00  0.0000000000000D+00
247  2.4600000000000D+00  0.0000000000000D+00  0.0000000000000D+00
248  2.4700000000000D+00  0.0000000000000D+00  0.0000000000000D+00
249  2.4800000000000D+00  0.0000000000000D+00  0.0000000000000D+00
250  2.4900000000000D+00  0.0000000000000D+00  0.0000000000000D+00
251  2.5000000000000D+00  0.0000000000000D+00  0.0000000000000D+00
252  2.5100000000000D+00  0.0000000000000D+00  0.0000000000000D+00
253  2.5200000000000D+00  0.0000000000000D+00  0.0000000000000D+00
254  2.5300000000000D+00  0.0000000000000D+00  0.0000000000000D+00
255  2.5400000000000D+00  0.0000000000000D+00  0.0000000000000D+00
256  2.5500000000000D+00  0.0000000000000D+00  0.0000000000000D+00
257  2.5600000000000D+00  0.0000000000000D+00  0.0000000000000D+00
258  2.5700000000000D+00  0.0000000000000D+00  0.0000000000000D+00
259  2.5800000000000D+00  0.0000000000000D+00  0.0000000000000D+00
260  2.5900000000000D+00  0.0000000000000D+00  0.0000000000000D+00
261  2.6000000000000D+00  0.0000000000000D+00  0.0000000000000D+00
262  2.6100000000000D+00  0.0000000000000D+00  0.0000000000000D+00
263  2.6200000000000D+00  0.0000000000000D+00  0.0000000000000D+00
264  2.6300000000000D+00  0.0000000000000D+00  0.0000000000000D+00
265  2.6400000000000D+00  0.0000000000000D+00  0.0000000000000D+00
266  2.6500000000000D+00  0.0000000000000D+00  0.0000000000000D+00
267  2.6600000000000D+00  0.0000000000000D+00  0.0000000000000D+00
268  2.6700000000000D+00  0.0000000000000D+00  0.0000000000000D+00
269  2.6800000000000D+00  0.0000000000000D+00  0.0000000000000D+00
270  2.6900000000000D+00  0.0000000000000D+00  0.0000000000000D+00
271  2.7000000000000D+00  0.0000000000000D+00  0.0000000000000D+00
272  2.7100000000000D+00  0.0000000000000D+00  0.0000000000000D+00
273  2.7200000000000D+00  0.0000000000000D+00  0.0000000000000D+00
274  2.7300000000000D+00  0.0000000000000D+00  0.0000000000000D+00
275  2.7400000000000D+00  0.0000000000000D+00  0.0000000000000D+00
276  2.7500000000000D+00  0.0000000000000D+00  0.0000000000000D+00
277  2.7600000000000D+00  0.0000000000000D+00  0.0000000000000D+00
278  2.7700000000000D+00  0.0000000000000D+00  0.0000000000000D+00
279  2.7800000000000D+00  0.0000000000000D+00  0.0000000000000D+00
280  2.7900000000000D+00  0.0000000000000D+00  0.0000000000000D+00
281  2.8000000000000D+00  0.0000000000000D+00  0.0000000000000D+00
282  2.8100000000000D+00  0.0000000000000D+00  0.0000000000000D+00
283  2.8200000000000D+00  0.0000000000000D+00  0.0000000000000D+00
284  2.8300000000000D+00  0.0000000000000D+00  0.0000000000000D+00
285  2.8400000000000D+00  0.0000000000000D+00  0.0000000000000D+00
286  2.8500000000000D+00  0.0000000000000D+00  0.0000000000000D+00
287  2.8600000000000D+00  0.0000000000000D+00  0.0000000000000D+00
288  2.8700000000000D+00  0.0000000000000D+00  0.0000000000000D+00
289  2.8800000000000D+00  0.0000000000000D+00  0.0000000000000D+00
290  2.8900000000000D+00  0.0000000000000D+00  0.0000000000000D+00
291  2.9000000000000D+00  0.0000000000000D+00  0.0000000000000D+00
292  2.9100000000000D+00  0.0000000000000D+00  0.0000000000000D+00
293  2.9200000000000D+00  0.0000000000000D+00  0.0000000000000D+00
294  2.9300000000000D+00  0.0000000000000D+00  0.0000000000000D+00
295  2.9400000000000D+00  0.0000000000000D+00  0.0000000000000D+00
296  2.9500000000000D+00  0.0000000000000D+00  0.0000000000000D+00
297  2.9600000000000D+00  0.0000000000000D+00  0.0000000000000D+00
298  2.9700000000000D+00  0.0000000000000D+00  0.0000000000000D+00
299  2.9800000000000D+00  0.0000000000000D+00  0.0000000000000D+00
300  2.9900000000000D+00  0.0000000000000D+00  0.0000000000000D+00
301  3.0000000000000D+00  0.0000000000000D+00  0.0000000000000D+00
302  3.0100000000000D+00  0.0000000000000D+00  0.0000000000000D+00
303  3.0200000000000D+00  0.0000000000000D+00  0.0000000000000D+00
304  3.0300000000000D+00  0.0000000000000D+00  0.0000000000000D+00
305  3.0400000000000D+00  0.0000000000000D+00  0.0000000000000D+00
306  3.0500000000000D+00  0.0000000000000D+00  0.0000000000000D+00
307  3.0600000000000D+00  0.0000000000000D+00  0.0000000000000D+00
308  3.0700000000000D+00  0.0000000000000D+00  0.0000000000000D+00
309  3.0800000000000D+00  0.0000000000000D+00  0.0000000000000D+00
310  3.0900000000000D+00  0.0000000000000D+00  0.0000000000000D+00
311  3.1000000000000D+00  0.0000000000000D+00  0.0000000000000D+00
312  3.1100000000000D+00  0.0000000000000D+00  0.0000000000000D+00
313  3.1200000000000D+00  0.0000000000000D+00  0.0000000000000D+00
314  3.1300000000000D+00  0.0000000000000D+00  0.0000000000000D+00
315  3.1400000000000D+00  0.0000000000000D+00  0.0000000000000D+00
316  3.1500000000000D+00  0.0000000000000D+00  0.0000000000000D+00
317  3.1600000000000D+00  0.0000000000000D+00  0.0000000000000D+00
318  3.1700000000000D+00  0.0000000000000D+00  0.0000000000000D+00
319  3.1800000000000D+00  0.0000000000000D+00  0.0000000000000D+00
320  3.1900000000000D+00  0.0000000000000D+00  0.0000000000000D+00
321  3.2000000000000D+00  0.0000000000000D+00  0.0000000000000D+00
322  3.2100000000000D+00  0.0000000000000D+00  0.0000000000000D+00
323  3.2200000000000D+00  0.0000000000000D+00  0.0000000000000D+00
324  3.2300000000000D+00  0.0000000000000D+00  0.0000000000000D+00
325  3.2400000000000D+00  0.0000000000000D+00  0.0000000000000D+00
326  3.2500000000000D+00  0.0000000000000D+00  0.0000000000000D+00
327  3.2600000000000D+00  0.0000000000000D+00  0.0000000000000D+00
328  3.2700000000000D+00  0.0000000000000D+00  0.0000000000000D+00
329  3.2800000000000D+00  0.0000000000000D+00  0.0000000000000D+00
330  3.2900000000000D+00  0.0000000000000D+00  0.0000000000000D+00
331  3.3000000000000D+00  0.0000000000000D+00  0.0000000000000D+00
332  3.3100000000000D+00  0.0000000000000D+00  0.0000000000000D+00
333  3.3200000000000D+00  0.0000000000000D+00  0.0000000000000D+00
334  3.3300000000000D+00  0.0000000000000D+00  0.0000000000000D+00
335  3.3400000000000D+00  0.0000000000000D+00  0.0000000000000D+00
336  3.3500000000000D+00  0.0000000000000D+00  0.0000000000000D+00
337  3.3600000000000D+00  0.0000000000000D+00  0.0000000000000D+00
338  3.3700000000000D+00  0.0000000000000D+00  0.0000000000000D+00
339  3.3800000000000D+00  0.0000000000000D+00  0.0000000000000D+00
340  3.3900000000000D+00  0.0000000000000D+00  0.0000000000000D+00
341  3.4000000000000D+00  0.0000000000000D+00  0.0000000000000D+00
342  3.4100000000000D+00  0.0000000000000D+00  0.0000000000000D+00
343  3.4200000000000D+00  0.0000000000000D+00  0.0000000000000D+00
344  3.4300000000000D+00  0.0000000000000D+00  0.0000000000000D+00
345  3.4400000000000D+00  0.0000000000000D+00  0.0000000000000D+00
346  3.4500000000000D+00  0.0000000000000D+00  0.0000000000000D+00
347  3.4600000000000D+00  0.0000000000000D+00  0.0000000000000D+00
348  3.4700000000000D+00  0.0000000000000D+00  0.0000000000000D+00
349  3.4800000000000D+00  0.0000000000000D+00  0.0000000000000D+00
350  3.4900000000000D+00  0.0000000000000D+00  0.0000000000000D+00
351  3.5000000000000D+00  0.0000000000000D+00  0.0000000000000D+00
352  3.5100000000000D+00  0.0000000000000D+00  0.0000000000000D+00
353  3.5200000000000D+00  0.0000000000000D+00  0.0000000000000D+00
354  3.5300000000000D+00  0.0000000000000D+00  0.0000000000000D+00
355  3.5400000000000D+00  0.0000000000000D+00  0.0000000000000D+00
356  3.5500000000000D+00  0.0000000000000D+00  0.0000000000000D+00
357  3.5600000000000D+00  0.0000000000000D+00  0.0000000000000D+00
358  3.5700000000000D+00  0.0000000000000D+00  0.0000000000000D+00
359  3.5800000000000D+00  0.0000000000000D+00  0.0000000000000D+00
360  3.5900000000000D+00  0.0000000000000D+00  0.0000000000000D+00
361  3.6000000000000D+00  0.0000000000000D+00  0.0000000000000D+00
362  3.6100000000000D+00  0.0000000000000D+00  0.0000000000000D+00
363  3.6200000000000D+00  0.0000000000000D+00  0.0000000000000D+00
364  3.6300000000000D+00  0.0000000000000D+00  0.0000000000000D+00
365  3.6400000000000D+00  0.0000000000000D+00  0.0000000000000D+00
366  3.6500000000000D+00  0.0000000000000D+00  0.0000000000000D+00
367  3.6600000000000D+00  0.0000000000000D+00  0.0000000000000D+00
368  3.6700000000000D+00  0.0000000000000D+00  0.0000000000000D+00
369  3.6800000000000D+00  0.0000000000000D+00  0.0000000000000D+00
370  3.6900000000000D+00  0.0000000000000D+00  0.0000000000000D+00
371  3.7000000000000D+00  0.0000000000000D+00  0.0000000000000D+00
372  3.7100000000000D+00  0.0000000000000D+00  0.0000000000000D+00
373  3.7200000000000D+00  0.0000000000000D+00  0.0000000000000D+00
374  3.7300000000000D+00  0.0000000000000D+00  0.0000000000000D+00
375  3.7400000000000D+00  0.0000000000000D+00  0.0000000000000D+00
376  3.7500000000000D+00  0.0000000000000D+00  0.0000000000000D+00
377  3.7600000000000D+00  0.0000000000000D+00  0.0000000000000D+00
378  3.7700000000000D+00  0.0000000000000D+00  0.0000000000000D+00
379  3.7800000000000D+00  0.0000000000000D+00  0.0000000000000D+00
380  3.7900000000000D+00  0.0000000000000D+00  0.0000000000000D+00
381  3.8000000000000D+00  0.0000000000000D+00  0.0000000000000D+00
382  3.8100000000000D+00  0.0000000000000D+00  0.0000000000000D+00
383  3.8200000000000D+00  0.0000000000000D+00  0.0000000000000D+00
384  3.8300000000000D+00  0.0000000000000D+00  0.0000000000000D+00
385  3.8400000000000D+00  0.0000000000000D+00  0.0000000000000D+00
386  3.8500000000000D+00  0.0000000000000D+00  0.0000000000000D+00
387  3.8600000000000D+00  0.0000000000000D+00  0.0000000000000D+00
388  3.8700000000000D+00  0.0000000000000D+00  0.0000000000000D+00
389  3.8800000000000D+00  0.0000000000000D+00  0.0000000000000D+00
390  3.8900000000000D+00  0.0000000000000D+00  0.0000000000000D+00
391  3.9000000000000D+00  0.0000000000000D+00  0.0000000000000D+00
392  3.9100000000000D+00  0.0000000000000D+00  0.0000000000000D+00
393  3.9200000000000D+00  0.0000000000000D+00  0.0000000000000D+00
394  3.9300000000000D+00  0.0000000000000D+00  0.0000000000000D+00
395  3.9400000000000D+00  0.0000000000000D+00  0.0000000000000D+00
396  3.9500000000000D+00  0.0000000000000D+00  0.0000000000000D+00
397  3.9600000000000D+00  0.0000000000000D+00  0.0000000000000D+00
398  3.9700000000000D+00  0.0000000000000D+00  0.0000000000000D+00
399  3.9800000000000D+00  0.0000000000000D+00  0.0000000000000D+00
400  3.9900000000000D+00  0.0000000000000D+00  0.0000000000000D+00
401  4.0000000000000D+00  0.0000000000000D+00  0.0000000000000D+00
402  4.0100000000000D+00  0.0000000000000D+00  0.0000000000000D+00
403  4.0200000000000D+00  0.0000000000000D+00  0.0000000000000D+00
404  4.0300000000000D+00  0.0000000000000D+00  0.0000000000000D+00
405  4.0400000000000D+00  0.0000000000000D+00  0.0000000000000D+00
406  4.0500000000000D+00  0.0000000000000D+00  0.0000000000000D+00
407  4.0600000000000D+00  0.0000000000000D+00  0.0000000000000D+00
408  4.0700000000000D+00  0.0000000000000D+00  0.0000000000000D+00
409  4.0800000000000D+00  0.0000000000000D+00  0.0000000000000D+00
410  4.0900000000000D+00  0.0000000000000D+00  0.0000000000000D+00
411  4.1000000000000D+00  0.0000000000000D+00  0.0000000000000D+00
412  4.1100000000000D+00  0.0000000000000D+00  0.0000000000000D+00
413  4.1200000000000D+00  0.0000000000000D+00  0.0000000000000D+00
414  4.1300000000000D+00  0.0000000000000D+00  0.0000000000000D+00
415  4.1400000000000D+00  0.0000000000000D+00  0.0000000000000D+00
416  4.1500000000000D+00  0.0000000000000D+00  0.0000000000000D+00
417  4.1600000000000D+00  0.0000000000000D+00  0.0000000000000D+00
418  4.1700000000000D+00  0.0000000000000D+00  0.0000000000000D+00
419  4.1800000000000D+00  0.0000000000000D+00  0.0000000000000D+00
420  4.1900000000000D+00  0.0000000000000D+00  0.0000000000000D+00
421  4.2000000000000D+00  0.0000000000000D+00  0.0000000000000D+00
422  4.2100000000000D+00  0.0000000000000D+00  0.0000000000000D+00
423  4.2200000000000D+00  0.0000000000000D+00  0.0000000000000D+00
424  4.2300000000000D+00  0.0000000000000D+00  0.0000000000000D+00
425  4.2400000000000D+00  0.0000000000000D+00  0.0000000000000D+00
426  4.2500000000000D+00  0.0000000000000D+00  0.0000000000000D+00
427  4.2600000000000D+00  0.0000000000000D+00  0.0000000000000D+00
428  4.2700000000000D+00  0.0000000000000D+00  0.0000000000000D+00
429  4.2800000000000D+00  0.0000000000000D+00  0.0000000000000D+00
430  4.2900000000000D+00  0.0000000000000D+00  0.0000000000000D+00
431  4.3000000000000D+00  0.0000000000000D+00  0.0000000000000D+00
432  4.3100000000000D+00  0.0000000000000D+00  0.0000000000000D+00
433  4.3200000000000D+00  0.0000000000000D+00  0.0000000000000D+00
434  4.3300000000000D+00  0.0000000000000D+00  0.0000000000000D+00
435  4.3400000000000D+00  0.0000000000000D+00  0.0000000000000D+00
436  4.3500000000000D+00  0.0000000000000D+00  0.0000000000000D+00
437  4.3600000000000D+00  0.0000000000000D+00  0.0000000000000D+00
438  4.3700000000000D+00  0.0000000000000D+00  0.0000000000000D+00
439  4.3800000000000D+00  0.0000000000000D+00  0.0000000000000D+00
440  4.3900000000000D+00  0.0000000000000D+00  0.0000000000000D+00
441  4.4000000000000D+00  0.0000000000000D+00  0.0000000000000D+00
442  4.4100000000000D+00  0.0000000000000D+00  0.0000000000000D+00
443  4.4200000000000D+00  0.0000000000000D+00  0.0000000000000D+00