<?xml version="1.0" encoding="UTF-8" ?>
<psml version="1.1" energy_unit="hartree" length_unit="bohr"
 uuid="62f02c20-53a0-11e8-72ea-ecac7bf7d3ae"
 xmlns="http://esl.cecam.org/PSML/ns/1.1">
<provenance creator="ONCVPSP-3.3.0+psml-3.3.0-73 (fully-relativistic)"
 date="2018-05-09">
<annotation action="semilocal-pseudopotential-generation"
 action-cont="projectors-generation" />
<input-file name="oncvpsp-input">
<![CDATA[# atsym z nc nv iexc psfile
Si 14 3 2 -116133 upf
# n l f
1 0 2.0
2 0 2.0
2 1 6.0
3 0 2.0
3 1 2.0
# lmax
2
# l rc ep ncon nbas qcut
0 1.6 0.0 4 9 6.4
1 1.71 0.0 4 9 6.4
2 1.9 0.05 4 9 6.4
# lloc lpopt rc5 dvloc0
4 5 1.6 0.0
# l nproj debl
0 2 2.5
1 2 2.5
2 2 1.5
# icmod fcfact rcfact
3 4.0 1.3
# epsh1 epsh2 depsh
-12.0 12.0 0.02
# rlmax drl
6.0 0.01
 0
]]>
</input-file>
</provenance>
<pseudo-atom-spec atomic-label="Si" atomic-number="14" z-pseudo="4"
 flavor="Hamann&apos;s oncvpsp" relativity="dirac" spin-dft="no"
 core-corrections="yes">
<annotation pseudo-energy="-3.75447004792" />
<exchange-correlation>
<annotation oncvpsp-xc-code="-116133" oncvpsp-xc-type="libxc-interface" />
<libxc-info number-of-functionals="2">
<functional name="Perdew, Burke &amp; Ernzerhof SOL (GGA)" type="exchange"
 id="116" />
<functional name="Perdew, Burke &amp; Ernzerhof SOL (GGA)" type="correlation"
 id="133" />
</libxc-info>
</exchange-correlation>
<valence-configuration total-valence-charge="4">
<shell n="3" l="s" occupation="2" />
<shell n="3" l="p" occupation="2" />
</valence-configuration>
</pseudo-atom-spec>
<grid npts="457">
<annotation type="sampled from oncvpsp log grid"
 recipe="r(i:1..N) = r1*exp(a*(i-1)) + r=0; resampled"
 recipe-cont="r1: scale; a: step" scale="0.357142857143E-04"
 step="0.119285708653E-01" delta="0.500000000000E-02" rmax="44.1697227368" />
<grid-data>
  0.000000000000E+00  5.043762840785E-03  1.007452045417E-02  1.511338716874E-02
  2.012306398724E-02  2.524200484366E-02  3.055005847129E-02  3.567456681735E-02
  4.067657200651E-02  4.582995923277E-02  5.102395083885E-02  5.613299095240E-02
  6.175360044568E-02  6.713142577090E-02  7.297758014932E-02  7.839214240648E-02
  8.420843742015E-02  8.938366768873E-02  9.487695407084E-02  1.007078434632E-01
  1.068970840635E-01  1.121212442685E-01  1.176007140554E-01  1.233479706417E-01
  1.293761010181E-01  1.356988317486E-01  1.423305602273E-01  1.475161931447E-01
  1.528907580013E-01  1.584611382921E-01  1.642344683032E-01  1.702181422495E-01
  1.764198237449E-01  1.828474556171E-01  1.895092700805E-01  1.964137992801E-01
  2.035698862185E-01  2.109866960820E-01  2.160807588722E-01  2.212978127144E-01
  2.266408271046E-01  2.321128432342E-01  2.377169757212E-01  2.434564143831E-01
  2.493344260519E-01  2.553543564345E-01  2.615196320163E-01  2.678337620117E-01
  2.743003403617E-01  2.809230477794E-01  2.877056538450E-01  2.946520191514E-01
  3.017660975018E-01  3.090519381599E-01  3.165136881548E-01  3.241555946416E-01
  3.319820073186E-01  3.399973809033E-01  3.482062776679E-01  3.566133700359E-01
  3.652234432420E-01  3.740413980557E-01  3.830722535703E-01  3.923211500605E-01
  4.017933519076E-01  4.114942505960E-01  4.214293677824E-01  4.264865201958E-01
  4.316043584382E-01  4.367836107394E-01  4.420250140683E-01  4.473293142371E-01
  4.526972660080E-01  4.581296332001E-01  4.636271887985E-01  4.691907150641E-01
  4.748210036448E-01  4.805188556886E-01  4.862850819568E-01  4.921205029403E-01
  4.980259489756E-01  5.040022603633E-01  5.100502874877E-01  5.161708909375E-01
  5.223649416288E-01  5.286333209283E-01  5.349769207794E-01  5.413966438288E-01
  5.478934035547E-01  5.544681243974E-01  5.611217418902E-01  5.678552027928E-01
  5.746694652264E-01  5.815654988091E-01  5.885442847948E-01  5.956068162123E-01
  6.027540980069E-01  6.099871471830E-01  6.173069929492E-01  6.247146768645E-01
  6.322112529869E-01  6.397977880228E-01  6.474753614790E-01  6.552450658168E-01
  6.631080066066E-01  6.710653026859E-01  6.791180863181E-01  6.872675033539E-01
  6.955147133942E-01  7.038608899549E-01  7.123072206343E-01  7.208549072820E-01
  7.295051661693E-01  7.382592281634E-01  7.471183389013E-01  7.560837589681E-01
  7.651567640758E-01  7.743386452447E-01  7.836307089876E-01  7.930342774955E-01
  8.025506888254E-01  8.121812970913E-01  8.219274726564E-01  8.317906023283E-01
  8.417720895562E-01  8.518733546309E-01  8.620958348865E-01  8.724409849051E-01
  8.829102767240E-01  8.935052000447E-01  9.042272624452E-01  9.150779895945E-01
  9.260589254697E-01  9.371716325753E-01  9.484176921662E-01  9.597987044722E-01
  9.713162889259E-01  9.829720843930E-01  9.947677494057E-01  1.006704962399E+00
  1.018785421947E+00  1.031010847011E+00  1.043382977175E+00  1.055903572901E+00
  1.068574415776E+00  1.081397308765E+00  1.094374076470E+00  1.107506565388E+00
  1.120796644173E+00  1.134246203903E+00  1.147857158349E+00  1.161631444250E+00
  1.175571021581E+00  1.189677873840E+00  1.203954008326E+00  1.218401456426E+00
  1.233022273903E+00  1.247818541190E+00  1.262792363684E+00  1.277945872048E+00
  1.293281222513E+00  1.308800597183E+00  1.324506204349E+00  1.340400278801E+00
  1.356485082147E+00  1.372762903132E+00  1.389236057970E+00  1.405906890666E+00
  1.422777773354E+00  1.439851106634E+00  1.457129319914E+00  1.474614871753E+00
  1.492310250214E+00  1.510217973216E+00  1.528340588895E+00  1.546680675961E+00
  1.565240844073E+00  1.584023734202E+00  1.603032019012E+00  1.622268403240E+00
  1.641735624079E+00  1.661436451568E+00  1.681373688987E+00  1.701550173255E+00
  1.721968775334E+00  1.742632400638E+00  1.763543989446E+00  1.784706517319E+00
  1.806122995527E+00  1.827796471473E+00  1.849730029131E+00  1.871926789480E+00
  1.894389910954E+00  1.917122589886E+00  1.940128060964E+00  1.963409597696E+00
  1.986970512868E+00  2.010814159023E+00  2.034943928931E+00  2.059363256078E+00
  2.084075615151E+00  2.109084522533E+00  2.134393536803E+00  2.160006259245E+00
  2.185926334356E+00  2.212157450368E+00  2.238703339772E+00  2.265567779850E+00
  2.292754593208E+00  2.320267648326E+00  2.348110860106E+00  2.376288190428E+00
  2.404803648713E+00  2.433661292497E+00  2.462865228007E+00  2.492419610743E+00
  2.522328646072E+00  2.552596589825E+00  2.583227748903E+00  2.614226481890E+00
  2.645597199672E+00  2.677344366069E+00  2.709472498461E+00  2.741986168443E+00
  2.774890002464E+00  2.808188682494E+00  2.841886946684E+00  2.875989590044E+00
  2.910501465124E+00  2.945427482706E+00  2.980772612498E+00  3.016541883848E+00
  3.052740386455E+00  3.089373271092E+00  3.126445750345E+00  3.163963099349E+00
  3.201930656541E+00  3.240353824420E+00  3.279238070313E+00  3.318588927157E+00
  3.358411994283E+00  3.398712938214E+00  3.439497493473E+00  3.480771463394E+00
  3.522540720955E+00  3.564811209606E+00  3.607588944122E+00  3.650880011451E+00
  3.694690571589E+00  3.739026858448E+00  3.783895180749E+00  3.829301922918E+00
  3.875253545993E+00  3.921756588545E+00  3.968817667608E+00  4.016443479619E+00
  4.064640801374E+00  4.113416490991E+00  4.162777488883E+00  4.212730818749E+00
  4.263283588574E+00  4.314442991637E+00  4.366216307537E+00  4.418610903227E+00
  4.471634234066E+00  4.525293844875E+00  4.579597371013E+00  4.634552539465E+00
  4.690167169939E+00  4.746449175978E+00  4.803406566090E+00  4.861047444883E+00
  4.919380014222E+00  4.978412574392E+00  5.038153525285E+00  5.098611367588E+00
  5.159794703999E+00  5.221712240447E+00  5.284372787333E+00  5.347785260781E+00
  5.411958683910E+00  5.476902188117E+00  5.542625014375E+00  5.609136514547E+00
  5.676446152722E+00  5.744563506554E+00  5.813498268633E+00  5.883260247857E+00
  5.953859370831E+00  6.025305683281E+00  6.097609351480E+00  6.170780663698E+00
  6.244830031662E+00  6.319767992042E+00  6.395605207947E+00  6.472352470442E+00
  6.550020700087E+00  6.628620948488E+00  6.708164399870E+00  6.788662372669E+00
  6.870126321141E+00  6.952567836994E+00  7.035998651038E+00  7.120430634851E+00
  7.205875802469E+00  7.292346312099E+00  7.379854467844E+00  7.468412721458E+00
  7.558033674116E+00  7.648730078205E+00  7.740514839143E+00  7.833401017213E+00
  7.927401829420E+00  8.022530651373E+00  8.118801019189E+00  8.216226631419E+00
  8.314821350996E+00  8.414599207208E+00  8.515574397695E+00  8.617761290467E+00
  8.721174425953E+00  8.825828519064E+00  8.931738461293E+00  9.038919322829E+00
  9.147386354702E+00  9.257154990959E+00  9.368240850850E+00  9.480659741061E+00
  9.594427657953E+00  9.709560789849E+00  9.826075519327E+00  9.943988425559E+00
  1.006331628667E+01  1.018407608211E+01  1.030628499509E+01  1.042996041503E+01
  1.055511994001E+01  1.068178137929E+01  1.080996275584E+01  1.093968230891E+01
  1.107095849662E+01  1.120380999858E+01  1.133825571856E+01  1.147431478719E+01
  1.161200656463E+01  1.175135064341E+01  1.189236685113E+01  1.203507525334E+01
  1.217949615638E+01  1.232565011026E+01  1.247355791158E+01  1.262324060652E+01
  1.277471949380E+01  1.292801612773E+01  1.308315232126E+01  1.324015014911E+01
  1.339903195090E+01  1.355982033431E+01  1.372253817832E+01  1.388720863646E+01
  1.405385514010E+01  1.422250140178E+01  1.439317141861E+01  1.456588947563E+01
  1.474068014934E+01  1.491756831113E+01  1.509657913086E+01  1.527773808043E+01
  1.546107093740E+01  1.564660378865E+01  1.583436303411E+01  1.602437539052E+01
  1.621666789521E+01  1.641126790995E+01  1.660820312487E+01  1.680750156237E+01
  1.700919158111E+01  1.721330188009E+01  1.741986150265E+01  1.762889984068E+01
  1.784044663877E+01  1.805453199843E+01  1.827118638241E+01  1.849044061900E+01
  1.871232590643E+01  1.893687381731E+01  1.916411630312E+01  1.939408569875E+01
  1.962681472714E+01  1.986233650386E+01  2.010068454191E+01  2.034189275641E+01
  2.058599546949E+01  2.083302741512E+01  2.108302374411E+01  2.133602002904E+01
  2.159205226938E+01  2.185115689662E+01  2.211337077938E+01  2.237873122873E+01
  2.264727600347E+01  2.291904331551E+01  2.319407183530E+01  2.347240069732E+01
  2.375406950569E+01  2.403911833976E+01  2.432758775984E+01  2.461951881296E+01
  2.491495303871E+01  2.521393247518E+01  2.551649966488E+01  2.582269766086E+01
  2.613257003279E+01  2.644616087318E+01  2.676351480366E+01  2.708467698130E+01
  2.740969310508E+01  2.773860942234E+01  2.807147273541E+01  2.840833040823E+01
  2.874923037313E+01  2.909422113761E+01  2.944335179126E+01  2.979667201275E+01
  3.015423207691E+01  3.051608286183E+01  3.088227585617E+01  3.125286316645E+01
  3.162789752444E+01  3.200743229474E+01  3.239152148227E+01  3.278021974006E+01
  3.317358237694E+01  3.357166536547E+01  3.397452534985E+01  3.438221965405E+01
  3.479480628990E+01  3.521234396538E+01  3.563489209296E+01  3.606251079808E+01
  3.649526092765E+01  3.693320405879E+01  3.737640250749E+01  3.782491933758E+01
  3.827881836963E+01  3.873816419007E+01  3.920302216035E+01  3.967345842627E+01
  4.014953992739E+01  4.063133440652E+01  4.111891041939E+01  4.161233734443E+01
  4.211168539256E+01  4.261702561727E+01  4.312842992468E+01  4.364597108377E+01
  4.416972273678E+01
</grid-data>
</grid>
<valence-charge total-charge="4" is-unscreening-charge="yes"
 rescaled-to-z-pseudo="no">
<radfunc>
<data npts="457">
  2.546244218822E-02  2.547568203300E-02  2.551526728499E-02  2.558133246157E-02
  2.567323437853E-02  2.579416200550E-02  2.594842520473E-02  2.612526647144E-02
  2.632435676613E-02  2.655686427794E-02  2.681937593234E-02  2.710523360019E-02
  2.745144196631E-02  2.781388054399E-02  2.824256307759E-02  2.867190886687E-02
  2.916782691430E-02  2.963940852439E-02  3.017131337935E-02  3.077133989578E-02
  3.144831650717E-02  3.205197858826E-02  3.271698996024E-02  3.344968359661E-02
  3.425706626336E-02  3.514689412218E-02  3.612775750066E-02  3.692883586774E-02
  3.779084849031E-02  3.871854415602E-02  3.971705785520E-02  4.079194421088E-02
  4.194921397667E-02  4.319537387409E-02  4.453747005397E-02  4.598313547583E-02
  4.754064150305E-02  4.921895400674E-02  5.040971130391E-02  5.166154434959E-02
  5.297770483952E-02  5.436162558064E-02  5.581693068300E-02  5.734744622394E-02
  5.895721137859E-02  6.065049000354E-02  6.243178265262E-02  6.430583899333E-02
  6.627767058121E-02  6.835256393555E-02  7.053609384436E-02  7.283413680861E-02
  7.525288451540E-02  7.779885720721E-02  8.047891678879E-02  8.330027948601E-02
  8.627052784042E-02  8.939762179151E-02  9.268990856392E-02  9.615613104203E-02
  9.980543427740E-02  1.036473697387E-01  1.076918968777E-01  1.119493815528E-01
  1.164305908182E-01  1.211466835651E-01  1.261091964757E-01  1.286865643787E-01
  1.313300247398E-01  1.340411163618E-01  1.368213969756E-01  1.396724421008E-01
  1.425958437931E-01  1.455932092754E-01  1.486661594481E-01  1.518163272751E-01
  1.550453560395E-01  1.583548974676E-01  1.617466097143E-01  1.652221552077E-01
  1.687831983477E-01  1.724314030534E-01  1.761684301561E-01  1.799959346317E-01
  1.839155626663E-01  1.879289485507E-01  1.920377113950E-01  1.962434516559E-01
  2.005477474692E-01  2.049521507745E-01  2.094581832238E-01  2.140673318570E-01
  2.187810445317E-01  2.236007250884E-01  2.285277282307E-01  2.335633540976E-01
  2.387088425033E-01  2.439653668128E-01  2.493340274235E-01  2.548158448139E-01
  2.604117521222E-01  2.661225872083E-01  2.719490841549E-01  2.778918641549E-01
  2.839514257321E-01  2.901281342385E-01  2.964222105700E-01  3.028337190406E-01
  3.093625543552E-01  3.160084276226E-01  3.227708513539E-01  3.296491233935E-01
  3.366423097415E-01  3.437492262308E-01  3.509684190386E-01  3.582981440238E-01
  3.657363449051E-01  3.732806303107E-01  3.809282497639E-01  3.886760686925E-01
  3.965205425870E-01  4.044576904701E-01  4.124830678798E-01  4.205917396130E-01
  4.287782525217E-01  4.370366087055E-01  4.453602394861E-01  4.537419806043E-01
  4.621740491187E-01  4.706480225322E-01  4.791548207009E-01  4.876846911142E-01
  4.962271981418E-01  5.047712168546E-01  5.133049320060E-01  5.218158427336E-01
  5.302907734875E-01  5.387158916191E-01  5.470767319656E-01  5.553582286473E-01
  5.635447541480E-01  5.716201655828E-01  5.795678578718E-01  5.873708233337E-01
  5.950117170045E-01  6.024729267643E-01  6.097366471514E-01  6.167849555398E-01
  6.235998891945E-01  6.301635215821E-01  6.364580362417E-01  6.424657965068E-01
  6.481694094330E-01  6.535517824440E-01  6.585961714592E-01  6.632862196241E-01
  6.676059862274E-01  6.715399659520E-01  6.750730992624E-01  6.781907754627E-01
  6.808788307342E-01  6.831235442602E-01  6.849116363111E-01  6.862302728608E-01
  6.870670818717E-01  6.874101867659E-01  6.872482627348E-01  6.865706213707E-01
  6.853673285802E-01  6.836293598253E-01  6.813487954066E-01  6.785190567650E-01
  6.751351826515E-01  6.711941415699E-01  6.666951742257E-01  6.616401569495E-01
  6.560339743653E-01  6.498848871414E-01  6.432048786917E-01  6.360097496051E-01
  6.283182634109E-01  6.201507297463E-01  6.115288558842E-01  6.024761474202E-01
  5.930178649714E-01  5.831809741783E-01  5.729935083556E-01  5.624835902247E-01
  5.516791835077E-01  5.406081796044E-01  5.292982396565E-01  5.177767312911E-01
  5.060706542799E-01  4.942065711202E-01  4.822105413060E-01  4.701080593969E-01
  4.579239970183E-01  4.456825489094E-01  4.334071831275E-01  4.211205955012E-01
  4.088446684055E-01  3.966004339147E-01  3.844080413630E-01  3.722867293233E-01
  3.602548019883E-01  3.483296099174E-01  3.365275350857E-01  3.248639801539E-01
  3.133533618530E-01  3.020091083594E-01  2.908436605173E-01  2.798684767488E-01
  2.690940414770E-01  2.585298768746E-01  2.481845577388E-01  2.380657292853E-01
  2.281801276452E-01  2.185336028448E-01  2.091311440436E-01  1.999769068033E-01
  1.910742421623E-01  1.824257272900E-01  1.740331974963E-01  1.658977793805E-01
  1.580199249066E-01  1.503994461837E-01  1.430355507816E-01  1.359268773605E-01
  1.290715314471E-01  1.224671211804E-01  1.161107928659E-01  1.099992661860E-01
  1.041288689252E-01  9.849557108164E-02  9.309501824648E-02  8.792256414499E-02
  8.297330224480E-02  7.824209634803E-02  7.372361009571E-02  6.941233532382E-02
  6.530261922155E-02  6.138869025250E-02  5.766468281007E-02  5.412466058760E-02
  5.076263865015E-02  4.757260422141E-02  4.454853616097E-02  4.168442317547E-02
  3.897428076783E-02  3.641216695211E-02  3.399219676301E-02  3.170855559298E-02
  2.955551139250E-02  2.752742577142E-02  2.561876404019E-02  2.382410423106E-02
  2.213814513896E-02  2.055571342169E-02  1.907176979858E-02  1.768141438568E-02
  1.637989120501E-02  1.516259190416E-02  1.402505872221E-02  1.296298673709E-02
  1.197222542919E-02  1.104877959610E-02  1.018880965312E-02  9.388631354834E-03
  8.644714973332E-03  7.953683969028E-03  7.312313190926E-03  6.717526643443E-03
  6.166394857433E-03  5.656131903324E-03  5.184092084331E-03  4.747766347558E-03
  4.344778450375E-03  3.972880918772E-03  3.629950833416E-03  3.313985477929E-03
  3.023097882445E-03  2.755512293819E-03  2.509559602030E-03  2.283672750298E-03
  2.076382154327E-03  1.886311153907E-03  1.712171517861E-03  1.552759021101E-03
  1.406949110319E-03  1.273692672688E-03  1.152011919819E-03  1.040996397225E-03
  9.397991276282E-04  8.476328946212E-04  7.637666715658E-04  6.875221990228E-04
  6.182707126245E-04  5.554298220118E-04  4.984605403219E-04  4.468644627016E-04
  4.001810914442E-04  3.579853045925E-04  3.198849642210E-04  2.855186600879E-04
  2.545535839385E-04  2.266835294284E-04  2.016270124162E-04  1.791255062352E-04
  1.589417864935E-04  1.408583799518E-04  1.246761120846E-04  1.102127480379E-04
  9.730172183581E-05  8.579094886256E-05  7.554171684087E-05  6.642765073712E-05
  5.833374724348E-05  5.115547470992E-05  4.479793462154E-05  3.917508093430E-05
  3.420899379366E-05  2.982920436170E-05  2.597206766966E-05  2.258018059195E-05
  1.960184220553E-05  1.699055395420E-05  1.470455718206E-05  1.270640573404E-05
  1.096257144535E-05  9.443080456625E-06  8.121178398367E-06  6.973022587921E-06
  5.977399475810E-06  5.115465666240E-06  4.370510920106E-06  3.727741628266E-06
  3.174083318943E-06  2.698000836230E-06  2.289334897251E-06  1.939153803834E-06
  1.639619150798E-06  1.383864437304E-06  1.165885550260E-06  9.804421495058E-07
  8.229690435410E-07  6.894967017195E-07  5.765801042572E-07  4.812351848676E-07
  4.008821724037E-07  3.332951874278E-07  2.765574971119E-07  2.290218772411E-07
  1.892755733040E-07  1.561093936875E-07  1.284905068184E-07  1.055385507290E-07
  8.650469795366E-08  7.075335093699E-08  5.774617326860E-08  4.702819011283E-08
  3.821571722930E-08  3.098590204731E-08  2.506768244112E-08  2.023398923313E-08
  1.629503711486E-08  1.309256571163E-08  1.049490801679E-08  8.392777480386E-09
  6.695677747924E-09  5.328850500842E-09  4.230687143332E-09  3.350539298789E-09
  2.646871310452E-09  2.085705267467E-09  1.639315578876E-09  1.285135869198E-09
  1.004846041109E-09  7.836118097129E-10  6.094529210583E-10  4.727196822779E-10
  3.656604052417E-10  2.820649485341E-10  2.169717785974E-10  1.664279005555E-10
  1.272926693561E-10  9.707791563505E-11  7.381803792897E-11  5.596475023901E-11
  4.230205524428E-11  3.187775978797E-11  2.394847925764E-11  1.793560757664E-11
  1.339017411251E-11  9.964880469484E-12  7.391919807447E-12  5.465438504938E-12
  4.027712847687E-12  2.958289020030E-12  2.165479039218E-12  1.579723552138E-12
  1.148428989637E-12  8.319651538927E-13  6.005730283785E-13  4.319840775207E-13
  3.095937456912E-13  2.210651086843E-13  1.572652002550E-13  1.114576934831E-13
  7.869240156540E-14  5.534532873777E-14  3.877344729214E-14  2.705656937001E-14
  1.880508326729E-14  1.301730561355E-14  8.974062409035E-15  6.161093349296E-15
  4.212166213343E-15  2.867545513704E-15  1.943792922231E-15  1.311903944526E-15
  8.815433563018E-16  5.897281613797E-16  3.927383224246E-16  2.603600230552E-16
  1.718070654688E-16  1.128441961534E-16  7.376738757463E-17  4.799231572766E-17
  3.107248232588E-17  2.001942401643E-17  1.283431283686E-17  8.186770689057E-18
  5.195705808983E-18  3.280504192261E-18  2.060497127189E-18  1.287384543427E-18
  0.000000000000E+00  0.000000000000E+00  0.000000000000E+00  0.000000000000E+00
  0.000000000000E+00  0.000000000000E+00  0.000000000000E+00  0.000000000000E+00
  0.000000000000E+00  0.000000000000E+00  0.000000000000E+00  0.000000000000E+00
  0.000000000000E+00  0.000000000000E+00  0.000000000000E+00  0.000000000000E+00
  0.000000000000E+00  0.000000000000E+00  0.000000000000E+00  0.000000000000E+00
  0.000000000000E+00
</data>
</radfunc>
</valence-charge>
<pseudocore-charge matching-radius="1.18967787384"
 number-of-continuous-derivatives="4">
<annotation model-charge-form="Teter function with specified parameters" />
<radfunc>
<data npts="290">
  2.833557062455E+00  2.833461847853E+00  2.833177203317E+00  2.832702264767E+00
  2.832041825595E+00  2.831173219552E+00  2.830065864330E+00  2.828797394227E+00
  2.827370557028E+00  2.825705864273E+00  2.823828468172E+00  2.821786660157E+00
  2.819317336574E+00  2.816736413354E+00  2.813689248575E+00  2.810643306504E+00
  2.807132447398E+00  2.803801184311E+00  2.800052312703E+00  2.795834113332E+00
  2.791088631880E+00  2.786869246738E+00  2.782234273563E+00  2.777143538156E+00
  2.771553142175E+00  2.765415151684E+00  2.758677266997E+00  2.753196063065E+00
  2.747319542402E+00  2.741020098219E+00  2.734268334865E+00  2.727032973646E+00
  2.719280757261E+00  2.710976353547E+00  2.702082259354E+00  2.692558705593E+00
  2.682363564655E+00  2.671452261666E+00  2.663757036453E+00  2.655708037166E+00
  2.647290142135E+00  2.638487697885E+00  2.629284512417E+00  2.619663849877E+00
  2.609608426812E+00  2.599100410240E+00  2.588121417789E+00  2.576652520169E+00
  2.564674246261E+00  2.552166591160E+00  2.539109027494E+00  2.525480520407E+00
  2.511259546587E+00  2.496424117775E+00  2.480951809210E+00  2.464819793494E+00
  2.448004880388E+00  2.430483563096E+00  2.412232071594E+00  2.393226433626E+00
  2.373442543982E+00  2.352856242709E+00  2.331443402946E+00  2.309180029045E+00
  2.286042365702E+00  2.262007018786E+00  2.237051088572E+00  2.224220919482E+00
  2.211152316058E+00  2.197842622300E+00  2.184289243038E+00  2.170489649737E+00
  2.156441386528E+00  2.142142076483E+00  2.127589428136E+00  2.112781242254E+00
  2.097715418849E+00  2.082389964451E+00  2.066802999635E+00  2.050952766788E+00
  2.034837638153E+00  2.018456124101E+00  2.001806881681E+00  1.984888723395E+00
  1.967700626239E+00  1.950241740974E+00  1.932511401640E+00  1.914509135297E+00
  1.896234671986E+00  1.877687954912E+00  1.858869150815E+00  1.839778660543E+00
  1.820417129795E+00  1.800785460024E+00  1.780884819484E+00  1.760716654400E+00
  1.740282700239E+00  1.719584993058E+00  1.698625880906E+00  1.677408035247E+00
  1.655934462378E+00  1.634208514806E+00  1.612233902547E+00  1.590014704316E+00
  1.567555378551E+00  1.544860774242E+00  1.521936141518E+00  1.498787141922E+00
  1.475419858346E+00  1.451840804557E+00  1.428056934246E+00  1.404075649564E+00
  1.379904809048E+00  1.355552734890E+00  1.331028219473E+00  1.306340531088E+00
  1.281499418777E+00  1.256515116200E+00  1.231398344456E+00  1.206160313772E+00
  1.180812723976E+00  1.155367763653E+00  1.129838107915E+00  1.104236914683E+00
  1.078577819387E+00  1.052874928004E+00  1.027142808336E+00  1.001396479447E+00
  9.756513991587E-01  9.499234495370E-01  9.242289202780E-01  8.985844899183E-01
  8.730072047992E-01  8.475144557187E-01  8.221239522124E-01  7.968536944124E-01
  7.717219424430E-01  7.467471833228E-01  7.219480953519E-01  6.973435099803E-01
  6.729523711622E-01  6.487936922218E-01  6.248865102675E-01  6.012498382148E-01
  5.779026144929E-01  5.548636505330E-01  5.321515761583E-01  5.097847830162E-01
  4.877813662196E-01  4.661590643874E-01  4.449351983013E-01  4.241266084188E-01
  4.037495915145E-01  3.838198367424E-01  3.643523614426E-01  3.453614470412E-01
  3.268605754166E-01  3.088623661318E-01  2.913785149540E-01  2.744197341058E-01
  2.579956947106E-01  2.421149719111E-01  2.267849931548E-01  2.120119901489E-01
  1.978009549934E-01  1.841556010032E-01  1.710783287245E-01  1.585701976430E-01
  1.466309040655E-01  1.352587656348E-01  1.244507129090E-01  1.142022884008E-01
  1.045076534307E-01  9.535960309398E-02  8.674958958835E-02  7.866775407883E-02
  7.110296720679E-02  6.404287826856E-02  5.747397300323E-02  5.138163983695E-02
  4.575024433352E-02  4.056321149974E-02  3.580311548984E-02  3.145177614730E-02
  2.749036171655E-02  2.389949695325E-02  2.065937576085E-02  1.774987738679E-02
  1.515068512385E-02  1.284140638530E-02  1.080169295654E-02  9.011360175342E-03
  7.450503757299E-03  6.099612967039E-03  4.939678838836E-03  3.952296175426E-03
  3.119758101575E-03  2.425142020132E-03  1.852385913450E-03  1.386354051598E-03
  1.012891310236E-03  7.188654636352E-04  4.921970001817E-04  3.218762058549E-04
  1.979674722676E-04  1.116010056736E-04  5.495233726720E-05  2.121025786743E-05
  4.534016127051E-06  8.228635338331E-10  3.544889052697E-06  1.188938560914E-05
  2.247284377754E-05  3.337161077991E-05  4.322003207052E-05  5.113004589428E-05
  5.661184577181E-05  5.949719137586E-05  5.986682887982E-05  5.798332074144E-05
  5.423038619456E-05  4.905962325466E-05  4.294522812377E-05  3.634705715627E-05
  2.968209972228E-05  2.330415777165E-05  1.749127031026E-05  1.244018877823E-05
  8.267012141653E-06  5.012936773762E-06  2.653972513673E-06  1.113427011211E-06
  2.759673423799E-07  2.129800898564E-09  1.422616775759E-07  5.490358056034E-07
  1.087870158296E-06  1.644799189954E-06  2.131567777738E-06  2.487938726592E-06
  2.681407219826E-06  2.704687867739E-06  2.571471738531E-06  2.311034471677E-06
  1.962308358460E-06  1.568011181512E-06  1.169356758715E-06  8.017644898920E-07
  4.918489481111E-07  2.558192027517E-07  9.926575998355E-08  1.817519680504E-08
  9.015762855877E-10  3.074948080797E-08  8.879193248089E-08  1.565588797949E-07
  2.182847647441E-07  2.624888946591E-07  2.827682700013E-07  2.777952603340E-07
  2.506176229317E-07  2.074426513678E-07  1.561405690554E-07  1.047188932405E-07
  5.999886753184E-08  2.667201353507E-08  6.838866470283E-09  4.577776886087E-11
  0.000000000000E+00  0.000000000000E+00  0.000000000000E+00  0.000000000000E+00
  0.000000000000E+00  0.000000000000E+00  0.000000000000E+00  0.000000000000E+00
  0.000000000000E+00  0.000000000000E+00  0.000000000000E+00  0.000000000000E+00
  0.000000000000E+00  0.000000000000E+00  0.000000000000E+00  0.000000000000E+00
  0.000000000000E+00  0.000000000000E+00  0.000000000000E+00  0.000000000000E+00
  0.000000000000E+00  0.000000000000E+00
</data>
</radfunc>
</pseudocore-charge>
<semilocal-potentials set="lj">
<slps n="3" l="s" j="0.5" rc="1.60303201901" eref="-0.395726806747">
<radfunc>
<data npts="290">
  1.210804577962E+01  1.210636422127E+01  1.210133776932E+01  1.209295287947E+01
  1.208129700705E+01  1.206597432868E+01  1.204645167918E+01  1.202410478012E+01
  1.199898871607E+01  1.196971385483E+01  1.193673505243E+01  1.190091262551E+01
  1.185765224638E+01  1.181251081516E+01  1.175931333983E+01  1.170624546025E+01
  1.164521373953E+01  1.158744077438E+01  1.152258685605E+01  1.144982122662E+01
  1.136822648453E+01  1.129591838802E+01  1.121675355935E+01  1.113012904728E+01
  1.103539977685E+01  1.093187826151E+01  1.081883509396E+01  1.072734248125E+01
  1.062972282612E+01  1.052562628692E+01  1.041469333232E+01  1.029655641086E+01
  1.017084204865E+01  1.003717343198E+01  9.895173533263E+00  9.744468839052E+00
  9.584693737425E+00  9.415495617667E+00  9.297296073849E+00  9.174666775574E+00
  9.047520821280E+00  8.915778332329E+00  8.779367558397E+00  8.638226050697E+00
  8.492301899359E+00  8.341555029676E+00  8.185958550119E+00  8.025500143039E+00
  7.860183486716E+00  7.690029695059E+00  7.515078758655E+00  7.335390968146E+00
  7.151048298070E+00  6.962155726395E+00  6.768842462034E+00  6.571263049730E+00
  6.369598318992E+00  6.164056141157E+00  5.954871956500E+00  5.742309031508E+00
  5.526658405255E+00  5.308238483345E+00  5.087394238331E+00  4.864495976957E+00
  4.639937637378E+00  4.414134583652E+00  4.187520870686E+00  4.074049973275E+00
  3.960545960593E+00  3.847066792520E+00  3.733670881249E+00  3.620416941090E+00
  3.507363830066E+00  3.394570383609E+00  3.282095240741E+00  3.169996663216E+00
  3.058332348183E+00  2.947159235027E+00  2.836533307153E+00  2.726509389578E+00
  2.617140943320E+00  2.508479857661E+00  2.400576241534E+00  2.293478215344E+00
  2.187231704719E+00  2.081880237779E+00  1.977464747651E+00  1.874023382088E+00
  1.771591322174E+00  1.670200612210E+00  1.569880003002E+00  1.470654810865E+00
  1.372546794738E+00  1.275574053912E+00  1.179750948888E+00  1.085088047938E+00
  9.915921019386E-01  8.992660500272E-01  8.081090585430E-01  7.181165956375E-01
  6.292805437702E-01  5.415893521017E-01  4.550282305429E-01  3.695793868978E-01
  2.852223081460E-01  2.019340864661E-01  1.196897900714E-01  3.846287833640E-02
 -4.177433998206E-02 -1.210502073653E-01 -1.993931797428E-01 -2.768312539188E-01
 -3.533913647805E-01 -4.290987578309E-01 -5.039763436188E-01 -5.780440416722E-01
 -6.513181226061E-01 -7.238105580825E-01 -7.955283893031E-01 -8.664731256680E-01
 -9.366401859942E-01 -1.006018395446E+00 -1.074589551855E+00 -1.142328075432E+00
 -1.209200755982E+00 -1.275166611593E+00 -1.340176872290E+00 -1.404175101321E+00
 -1.467097465600E+00 -1.528873165219E+00 -1.589425029963E+00 -1.648670288295E+00
 -1.706521511383E+00 -1.762887731370E+00 -1.817675729272E+00 -1.870791483592E+00
 -1.922141766093E+00 -1.971635866060E+00 -2.019187419031E+00 -2.064716310336E+00
 -2.108150617999E+00 -2.149428553766E+00 -2.188500355371E+00 -2.225330077782E+00
 -2.259897226368E+00 -2.292198170906E+00 -2.322247276399E+00 -2.350077685152E+00
 -2.375741684717E+00 -2.399310598671E+00 -2.420874141954E+00 -2.440539190063E+00
 -2.458427922129E+00 -2.474675311931E+00 -2.489425958430E+00 -2.502830268403E+00
 -2.515040028071E+00 -2.526203427860E+00 -2.536459634061E+00 -2.545933032269E+00