<?xml version="1.0" encoding="UTF-8" ?>
<psml version="1.1" energy_unit="hartree" length_unit="bohr"
 uuid="405635d0-539e-11e8-5f8b-6f27edeb8e33"
 xmlns="http://esl.cecam.org/PSML/ns/1.1">
<provenance creator="ONCVPSP-3.3.0+psml-3.3.0-73 (fully-relativistic)"
 date="2018-05-09">
<annotation action="semilocal-pseudopotential-generation"
 action-cont="projectors-generation" />
<input-file name="oncvpsp-input">
<![CDATA[# atsym z nc nv iexc psfile
Ca 20 3 3 -116133 upf
# n l f
1 0 2.0
2 0 2.0
2 1 6.0
3 0 2.0
3 1 6.0
4 0 2.0
# lmax
2
# l rc ep ncon nbas qcut
0 1.45 0.0 4 8 8.2
1 1.45 0.0 4 8 8.4
2 1.85 0.0 4 8 8.0
# lloc lpopt rc5 dvloc0
4 5 1.3 0.0
# l nproj debl
0 2 2.0
1 2 2.0
2 2 2.0
# icmod fcfact
3 6 1.28
# epsh1 epsh2 depsh
-12.0 12.0 0.02
# rlmax drl
4.0 0.01
 0
]]>
</input-file>
</provenance>
<pseudo-atom-spec atomic-label="Ca" atomic-number="20" z-pseudo="10"
 flavor="Hamann&apos;s oncvpsp" relativity="dirac" spin-dft="no"
 core-corrections="yes">
<annotation pseudo-energy="-36.7824752318" />
<exchange-correlation>
<annotation oncvpsp-xc-code="-116133" oncvpsp-xc-type="libxc-interface" />
<libxc-info number-of-functionals="2">
<functional name="Perdew, Burke &amp; Ernzerhof SOL (GGA)" type="exchange"
 id="116" />
<functional name="Perdew, Burke &amp; Ernzerhof SOL (GGA)" type="correlation"
 id="133" />
</libxc-info>
</exchange-correlation>
<valence-configuration total-valence-charge="10">
<shell n="3" l="s" occupation="2" />
<shell n="3" l="p" occupation="6" />
<shell n="4" l="s" occupation="2" />
</valence-configuration>
</pseudo-atom-spec>
<grid npts="457">
<annotation type="sampled from oncvpsp log grid"
 recipe="r(i:1..N) = r1*exp(a*(i-1)) + r=0; resampled"
 recipe-cont="r1: scale; a: step" scale="0.250000000000E-04"
 step="0.119285708653E-01" delta="0.500000000000E-02" rmax="44.2219702658" />
<grid-data>
  0.000000000000E+00  5.049729012381E-03  1.008643741373E-02  1.513126450836E-02
  2.014686717874E-02  2.527186313341E-02  3.058619555721E-02  3.571676558720E-02
  4.072468755361E-02  4.588417062408E-02  5.108430610452E-02  5.619938960492E-02
  6.182664761078E-02  6.721083426378E-02  7.306390394756E-02  7.848487098793E-02
  8.430804598688E-02  8.948939793739E-02  9.498918222399E-02  1.008269688650E-01
  1.070235306009E-01  1.122538703661E-01  1.177398217141E-01  1.234938766215E-01
  1.295291375591E-01  1.358593473281E-01  1.424989203530E-01  1.476906872574E-01
  1.530716095851E-01  1.586485789732E-01  1.644287381471E-01  1.704194900681E-01
  1.766285074152E-01  1.830637424114E-01  1.897334370091E-01  1.966461334456E-01
  2.038106851838E-01  2.112362682513E-01  2.163363567119E-01  2.215595817084E-01
  2.269089162491E-01  2.323874051231E-01  2.379981666323E-01  2.437443943675E-01
  2.496293590251E-01  2.556564102694E-01  2.618289786390E-01  2.681505774992E-01
  2.746248050424E-01  2.812553463353E-01  2.880459754172E-01  2.950005574477E-01
  3.021230509067E-01  3.094175098478E-01  3.168880862056E-01  3.245390321589E-01
  3.323747025514E-01  3.403995573698E-01  3.486181642829E-01  3.570352012414E-01
  3.656554591401E-01  3.744838445456E-01  3.835253824883E-01  3.927852193231E-01
  4.022686256585E-01  4.119809993564E-01  4.219278686048E-01  4.269910030281E-01
  4.321148950644E-01  4.373002738052E-01  4.425478770908E-01  4.478584516159E-01
  4.532327530353E-01  4.586715460717E-01  4.641756046246E-01  4.697457118801E-01
  4.753826604227E-01  4.810872523477E-01  4.868602993759E-01  4.927026229684E-01
  4.986150544440E-01  5.045984350974E-01  5.106536163185E-01  5.167814597144E-01
  5.229828372309E-01  5.292586312777E-01  5.356097348530E-01  5.420370516713E-01
  5.485414962913E-01  5.551239942468E-01  5.617854821778E-01  5.685269079639E-01
  5.753492308595E-01  5.822534216298E-01  5.892404626894E-01  5.963113482416E-01
  6.034670844205E-01  6.107086894336E-01  6.180371937068E-01  6.254536400313E-01
  6.329590837116E-01  6.405545927162E-01  6.482412478288E-01  6.560201428027E-01
  6.638923845163E-01  6.718590931305E-01  6.799214022481E-01  6.880804590751E-01
  6.963374245840E-01  7.046934736790E-01  7.131497953631E-01  7.217075929075E-01
  7.303680840224E-01  7.391325010307E-01  7.480020910430E-01  7.569781161355E-01
  7.660618535292E-01  7.752545957715E-01  7.845576509208E-01  7.939723427318E-01
  8.035000108446E-01  8.131420109747E-01  8.228997151064E-01  8.327745116877E-01
  8.427678058280E-01  8.528810194979E-01  8.631155917319E-01  8.734729788327E-01
  8.839546545787E-01  8.945621104336E-01  9.052968557588E-01  9.161604180279E-01
  9.271543430442E-01  9.382801951608E-01  9.495395575027E-01  9.609340321927E-01
  9.724652405790E-01  9.841348234660E-01  9.959444413476E-01  1.007895774644E+00
  1.019990523939E+00  1.032230410227E+00  1.044617175149E+00  1.057152581251E+00
  1.069838412226E+00  1.082676473173E+00  1.095668590851E+00  1.108816613941E+00
  1.122122413309E+00  1.135587882268E+00  1.149214936856E+00  1.163005516098E+00
  1.176961582291E+00  1.191085121278E+00  1.205378142734E+00  1.219842680447E+00
  1.234480792612E+00  1.249294562123E+00  1.264286096869E+00  1.279457530031E+00
  1.294811020392E+00  1.310348752636E+00  1.326072937668E+00  1.341985812920E+00
  1.358089642675E+00  1.374386718387E+00  1.390879359008E+00  1.407569911316E+00
  1.424460750252E+00  1.441554279255E+00  1.458852930606E+00  1.476359165773E+00
  1.494075475762E+00  1.512004381471E+00  1.530148434049E+00  1.548510215258E+00
  1.567092337841E+00  1.585897445895E+00  1.604928215246E+00  1.624187353828E+00
  1.643677602074E+00  1.663401733299E+00  1.683362554099E+00  1.703562904748E+00
  1.724005659605E+00  1.744693727520E+00  1.765630052251E+00  1.786817612878E+00
  1.808259424232E+00  1.829958537323E+00  1.851918039771E+00  1.874141056248E+00
  1.896630748923E+00  1.919390317910E+00  1.942423001725E+00  1.965732077746E+00
  1.989320862679E+00  2.013192713031E+00  2.037351025587E+00  2.061799237894E+00
  2.086540828749E+00  2.111579318694E+00  2.136918270518E+00  2.162561289764E+00
  2.188512025242E+00  2.214774169545E+00  2.241351459579E+00  2.268247677094E+00
  2.295466649219E+00  2.323012249010E+00  2.350888395998E+00  2.379099056750E+00
  2.407648245431E+00  2.436540024376E+00  2.465778504669E+00  2.495367846725E+00
  2.525312260885E+00  2.555616008016E+00  2.586283400112E+00  2.617318800913E+00
  2.648726626524E+00  2.680511346043E+00  2.712677482195E+00  2.745229611982E+00
  2.778172367325E+00  2.811510435733E+00  2.845248560962E+00  2.879391543694E+00
  2.913944242218E+00  2.948911573124E+00  2.984298512002E+00  3.020110094146E+00
  3.056351415276E+00  3.093027632259E+00  3.130143963846E+00  3.167705691412E+00
  3.205718159709E+00  3.244186777626E+00  3.283117018957E+00  3.322514423185E+00
  3.362384596263E+00  3.402733211418E+00  3.443566009955E+00  3.484888802075E+00
  3.526707467700E+00  3.569027957312E+00  3.611856292800E+00  3.655198568313E+00
  3.699060951133E+00  3.743449682547E+00  3.788371078737E+00  3.833831531682E+00
  3.879837510062E+00  3.926395560183E+00  3.973512306905E+00  4.021194454588E+00
  4.069448788043E+00  4.118282173500E+00  4.167701559582E+00  4.217713978297E+00
  4.268326546036E+00  4.319546464589E+00  4.371381022164E+00  4.423837594430E+00
  4.476923645563E+00  4.530646729309E+00  4.585014490061E+00  4.640034663942E+00
  4.695715079909E+00  4.752063660868E+00  4.809088424799E+00  4.866797485896E+00
  4.925199055727E+00  4.984301444396E+00  5.044113061728E+00  5.104642418469E+00
  5.165898127491E+00  5.227888905021E+00  5.290623571881E+00  5.354111054743E+00
  5.418360387400E+00  5.483380712049E+00  5.549181280594E+00  5.615771455961E+00
  5.683160713432E+00  5.751358641994E+00  5.820374945698E+00  5.890219445046E+00
  5.960902078386E+00  6.032432903327E+00  6.104822098167E+00  6.178079963345E+00
  6.252216922905E+00  6.327243525980E+00  6.403170448292E+00  6.480008493671E+00
  6.557768595595E+00  6.636461818742E+00  6.716099360567E+00  6.796692552894E+00
  6.878252863529E+00  6.960791897891E+00  7.044321400666E+00  7.128853257474E+00
  7.214399496564E+00  7.300972290522E+00  7.388583958009E+00  7.477246965505E+00
  7.566973929091E+00  7.657777616240E+00  7.749670947635E+00  7.842666999006E+00
  7.936779002994E+00  8.032020351030E+00  8.128404595243E+00  8.225945450386E+00
  8.324656795790E+00  8.424552677340E+00  8.525647309468E+00  8.627955077181E+00
  8.731490538108E+00  8.836268424565E+00  8.942303645660E+00  9.049611289408E+00
  9.158206624881E+00  9.268105104379E+00  9.379322365632E+00  9.491874234019E+00
  9.605776724827E+00  9.721046045525E+00  9.837698598072E+00  9.955750981249E+00
  1.007521999302E+01  1.019612263294E+01  1.031847610454E+01  1.044229781779E+01
  1.056760539160E+01  1.069441665630E+01  1.082274965618E+01  1.095262265205E+01
  1.108405412388E+01  1.121706277336E+01  1.135166752664E+01  1.148788753696E+01
  1.162574218741E+01  1.176525109366E+01  1.190643410678E+01  1.204931131606E+01
  1.219390305185E+01  1.234022988848E+01  1.248831264714E+01  1.263817239890E+01
  1.278983046769E+01  1.294330843330E+01  1.309862813450E+01  1.325581167212E+01
  1.341488141218E+01  1.357585998913E+01  1.373877030900E+01  1.390363555271E+01
  1.407047917934E+01  1.423932492949E+01  1.441019682864E+01  1.458311919059E+01
  1.475811662087E+01  1.493521402032E+01  1.511443658857E+01  1.529580982763E+01
  1.547935954556E+01  1.566511186011E+01  1.585309320243E+01  1.604333032086E+01
  1.623585028471E+01  1.643068048813E+01  1.662784865398E+01  1.682738283783E+01
  1.702931143189E+01  1.723366316907E+01  1.744046712710E+01  1.764975273262E+01
  1.786154976541E+01  1.807588836260E+01  1.829279902295E+01  1.851231261123E+01
  1.873446036256E+01  1.895927388691E+01  1.918678517355E+01  1.941702659564E+01
  1.965003091478E+01  1.988583128576E+01  2.012446126119E+01  2.036595479633E+01
  2.061034625388E+01  2.085767040893E+01  2.110796245384E+01  2.136125800328E+01
  2.161759309932E+01  2.187700421651E+01  2.213952826711E+01  2.240520260632E+01
  2.267406503759E+01  2.294615381804E+01  2.322150766386E+01  2.350016575583E+01
  2.378216774490E+01  2.406755375783E+01  2.435636440293E+01  2.464864077576E+01
  2.494442446507E+01  2.524375755865E+01  2.554668264936E+01  2.585324284115E+01
  2.616348175524E+01  2.647744353631E+01  2.679517285874E+01  2.711671493305E+01
  2.744211551224E+01  2.777142089839E+01  2.810467794917E+01  2.844193408456E+01
  2.878323729358E+01  2.912863614110E+01  2.947817977479E+01  2.983191793209E+01
  3.018990094727E+01  3.055217975864E+01  3.091880591575E+01  3.128983158673E+01
  3.166530956578E+01  3.204529328056E+01  3.242983679993E+01  3.281899484153E+01
  3.321282277963E+01  3.361137665298E+01  3.401471317282E+01  3.442288973089E+01
  3.483596440767E+01  3.525399598056E+01  3.567704393232E+01  3.610516845951E+01
  3.653843048103E+01  3.697689164680E+01  3.742061434656E+01  3.786966171872E+01
  3.832409765934E+01  3.878398683126E+01  3.924939467323E+01  3.972038740931E+01
  4.019703205822E+01  4.067939644292E+01  4.116754920023E+01  4.166155979064E+01
  4.216149850812E+01  4.266743649022E+01  4.317944572810E+01  4.369759907684E+01
  4.422197026576E+01
</grid-data>
</grid>
<valence-charge total-charge="10" is-unscreening-charge="yes"
 rescaled-to-z-pseudo="no">
<radfunc>
<data npts="457">
  6.308785903261E-01  6.318975442601E-01  6.349434917535E-01  6.400250250285E-01
  6.470897810164E-01  6.563786277774E-01  6.682162271606E-01  6.817700391388E-01
  6.970082310254E-01  7.147761932008E-01  7.348008889224E-01  7.565629063700E-01
  7.828586814448E-01  8.103161293330E-01  8.426984270989E-01  8.750293758168E-01
  9.122473912687E-01  9.475140534715E-01  9.871462188307E-01  1.031669355400E+00
  1.081668072523E+00  1.126043441394E+00  1.174701890170E+00  1.228038620699E+00
  1.286481342835E+00  1.350492051470E+00  1.420568674179E+00  1.477427475662E+00
  1.538238679989E+00  1.603254680870E+00  1.672740350529E+00  1.746973017191E+00
  1.826242299283E+00  1.910849765330E+00  2.001108383531E+00  2.097341719409E+00
  2.199882833548E+00  2.309072824456E+00  2.385731273457E+00  2.465602981704E+00
  2.548792282405E+00  2.635403471314E+00  2.725540319386E+00  2.819305518784E+00
  2.916800055850E+00  3.018122504209E+00  3.123368230783E+00  3.232628507144E+00
  3.345989518216E+00  3.463531260113E+00  3.585326318596E+00  3.711438519534E+00
  3.841921442686E+00  3.976816790255E+00  4.116152601958E+00  4.259941308861E+00
  4.408177619050E+00  4.560836229311E+00  4.717869358523E+00  4.879204100444E+00
  5.044739596097E+00  5.214344029093E+00  5.387851451094E+00  5.565058449271E+00
  5.745720673178E+00  5.929549244963E+00  6.116207084514E+00  6.210477546620E+00
  6.305305189811E+00  6.400632666485E+00  6.496398922748E+00  6.592539087078E+00
  6.688984361805E+00  6.785661918100E+00  6.882494795251E+00  6.979401805023E+00
  7.076297442011E+00  7.173091800902E+00  7.269690501656E+00  7.365994623668E+00
  7.461900650038E+00  7.557300423110E+00  7.652081112543E+00  7.746125197196E+00
  7.839310462167E+00  7.931510012397E+00  8.022592304254E+00  8.112421196588E+00
  8.200856022749E+00  8.287751685083E+00  8.372958773457E+00  8.456323709327E+00
  8.537688916864E+00  8.616893022644E+00  8.693771085325E+00  8.768154856704E+00
  8.839873075461E+00  8.908751794773E+00  8.974614744905E+00  9.037283731673E+00
  9.096579071588E+00  9.152320064206E+00  9.204325502063E+00  9.252414218271E+00
  9.296405671622E+00  9.336120568695E+00  9.371381522185E+00  9.402013744282E+00
  9.427845773557E+00  9.448710233428E+00  9.464444619847E+00  9.474892115395E+00
  9.479902426568E+00  9.479332640517E+00  9.473048097102E+00  9.460923271608E+00
  9.442842663047E+00  9.418701682516E+00  9.388407535664E+00  9.351880092919E+00
  9.309052740792E+00  9.259873207227E+00  9.204304353728E+00  9.142324926778E+00
  9.073930260927E+00  8.999132925853E+00  8.917963309703E+00  8.830470131136E+00
  8.736720872621E+00  8.636802127862E+00  8.530819856523E+00  8.418899539913E+00
  8.301186231790E+00  8.177844499082E+00  8.049058247992E+00  7.915030431758E+00
  7.775982637116E+00  7.632154547474E+00  7.483803281670E+00  7.331202608229E+00
  7.174642035985E+00  7.014425782992E+00  6.850871626676E+00  6.684309639215E+00
  6.515080813186E+00  6.343535583540E+00  6.170032253007E+00  5.994935329051E+00
  5.818613781505E+00  5.641439231036E+00  5.463784079591E+00  5.286019594993E+00
  5.108513962852E+00  4.931630319975E+00  4.755724784454E+00  4.581144498562E+00
  4.408225701572E+00  4.237291850421E+00  4.068651806984E+00  3.902598111283E+00
  3.739405360486E+00  3.579328713696E+00  3.422602542521E+00  3.269439246987E+00
  3.120028255733E+00  2.974535228230E+00  2.833101474904E+00  2.695843608706E+00
  2.562853439009E+00  2.434198115514E+00  2.309920526249E+00  2.190040574902E+00
  2.074559260742E+00  1.963464379640E+00  1.856731919486E+00  1.754326190123E+00
  1.656200914286E+00  1.562299968470E+00  1.472558176863E+00  1.386902091878E+00
  1.305250763661E+00  1.227516495447E+00  1.153605582106E+00  1.083419029345E+00
  1.016853251354E+00  9.538007449722E-01  8.941507386326E-01  8.377898146437E-01
  7.846025035511E-01  7.344718495523E-01  6.872799461333E-01  6.429084412829E-01
  6.012390118143E-01  5.621538064880E-01  5.255358577818E-01  4.912694622966E-01
  4.592405299219E-01  4.293369020097E-01  4.014486389273E-01  3.754682774697E-01
  3.512910587191E-01  3.288151270341E-01  3.079417009420E-01  2.885752167850E-01
  2.706234460438E-01  2.539975873241E-01  2.386123340509E-01  2.243859189753E-01
  2.112401366702E-01  1.991003452776E-01  1.878954488955E-01  1.775578621562E-01
  1.680234587612E-01  1.592315059919E-01  1.511245874939E-01  1.436485168805E-01
  1.367522448640E-01  1.303877626207E-01  1.245100038625E-01  1.190767475913E-01
  1.140485227816E-01  1.093885153729E-01  1.050624771080E-01  1.010386350936E-01
  9.728760062707E-02  9.378227586533E-02  9.049775727429E-02  8.741123536365E-02
  8.450189083598E-02  8.175078782496E-02  7.914076528022E-02  7.665632774809E-02
  7.428353681395E-02  7.200990436048E-02  6.982428860682E-02  6.771679367545E-02
  6.567867321868E-02  6.370223844699E-02  6.178077074624E-02  5.990843895022E-02
  5.808022124767E-02  5.629183164183E-02  5.453965084040E-02  5.282066142977E-02
  5.113238717347E-02  4.947283626935E-02  4.784044839856E-02  4.623404540172E-02
  4.465278542128E-02  4.309612035348E-02  4.156375645863E-02  4.005561798278E-02
  3.857181364903E-02  3.711260588042E-02  3.567838262072E-02  3.426963162268E-02
  3.288691707617E-02  3.153085845174E-02  3.020211143698E-02  2.890135084547E-02
  2.762925537962E-02  2.638649413048E-02  2.517371469921E-02  2.399153282639E-02
  2.284052341735E-02  2.172121285388E-02  2.063407248564E-02  1.957951319798E-02
  1.855788095797E-02  1.756945324600E-02  1.661443628777E-02  1.569296301009E-02
  1.480509165394E-02  1.395080498910E-02  1.313001008643E-02  1.234253861512E-02
  1.158814764306E-02  1.086652091878E-02  1.017727067822E-02  9.519939867399E-03
  8.894004890382E-03  8.298878818910E-03  7.733915062246E-03  7.198411475257E-03
  6.691614871596E-03  6.212725897119E-03  5.760904207485E-03  5.335273884137E-03
  4.934929015413E-03  4.558939364850E-03  4.206356047125E-03  3.876217133435E-03
  3.567553112316E-03  3.279392138289E-03  3.010765009076E-03  2.760709821590E-03
  2.528276267081E-03  2.312529536217E-03  2.112553814905E-03  1.927455361195E-03
  1.756365162197E-03  1.598441177536E-03  1.452870182374E-03  1.318869228311E-03
  1.195686744707E-03  1.082603306086E-03  9.789320934413E-04  8.840190785116E-04
  7.972429606277E-04  7.180148855422E-04  6.457779749619E-04  5.800066943453E-04
  5.202060850232E-04  4.659108849403E-04  4.166845603662E-04  3.721182688705E-04
  3.318297717466E-04  2.954623119685E-04  2.626834717120E-04  2.331840215051E-04
  2.066767712348E-04  1.828954315296E-04  1.615934925025E-04  1.425431254673E-04
  1.255341120429E-04  1.103728040342E-04  9.688111661563E-05  8.489555662661E-05
  7.426628721267E-05  6.485622958571E-05  5.654020231678E-05  4.920409829888E-05
  4.274409930531E-05  3.706592790768E-05  3.208413639272E-05  2.772143221683E-05
  2.390803945371E-05  2.058109561614E-05  1.768408316372E-05  1.516629494076E-05
  1.298233272224E-05  1.109163797869E-05  9.458053906021E-06  8.049417702144E-06
  6.837182012626E-06  5.796064412017E-06  4.903723738758E-06  4.140462060160E-06
  3.488951011132E-06  2.933981226794E-06  2.462233575182E-06  2.062070892108E-06
  1.723348925552E-06  1.437245211551E-06  1.196104626481E-06  9.933003914515E-07
  8.231093421040E-07  6.806003205836E-07  5.615345948729E-07  4.622772629325E-07
  3.797186543135E-07  3.112047991185E-07  2.544760925351E-07  2.076133418761E-07
  1.689904414194E-07  1.372329777427E-07  1.111821241704E-07  8.986323695528E-08
  7.245861755299E-08  5.828395455409E-08  4.676800530069E-08  3.743512081959E-08
  2.989025836748E-08  2.380616358912E-08  1.891243906390E-08  1.498624791154E-08
  1.184443024305E-08  9.336836687645E-09  7.340707133383E-09  5.755944335575E-09
  4.501151324835E-09  3.510318745924E-09  2.730063538248E-09  2.117333888012E-09
  1.637507295065E-09  1.262819053763E-09  9.710675890816E-10  7.445510511174E-10
  5.691964790975E-10  4.338488169533E-10  3.296922042822E-10  2.497803778790E-10
  1.886567897982E-10  1.420482593146E-10  1.066187011977E-10  7.977177664201E-11
  5.949325400665E-11  4.422549551190E-11  3.276784834729E-11  2.419785379113E-11
  1.780913035801E-11  1.306256654815E-11  9.548101253578E-12  6.954897439109E-12
  5.048146318487E-12  3.651091032327E-12  2.631144497285E-12  1.889207193678E-12
  1.351476909117E-12  9.631919914432E-13  6.838692635708E-13  4.836930400895E-13
  3.407873080158E-13  2.391629150409E-13  1.671786799909E-13  1.163922563938E-13
  8.070541559291E-14  5.573084817275E-14  3.832496203261E-14  2.624456471125E-14
  1.789562035499E-14  1.215015433697E-14  8.213383812842E-15  5.527707872703E-15
  3.703631468266E-15  2.470284393188E-15  1.640133332345E-15  1.083928363613E-15
  7.129961005133E-16  4.667824327253E-16  3.041290843423E-16  1.971934726371E-16
  1.272310077059E-16  8.168337303838E-17  5.217815587866E-17  3.316133008497E-17
  2.096702333510E-17  1.318792239169E-17  8.251322739016E-18  5.135122917073E-18
  3.178559514959E-18  1.956743525539E-18  1.197934286523E-18  7.292874637212E-19
  4.414707612273E-19  2.657131277428E-19  1.590017885403E-19  9.458856407454E-20
  5.593610151827E-20  3.287998542558E-20  1.920991314393E-20  1.115428052240E-20
  6.436474319512E-21  0.000000000000E+00  0.000000000000E+00  0.000000000000E+00
  0.000000000000E+00
</data>
</radfunc>
</valence-charge>
<pseudocore-charge matching-radius="0.625453640031"
 number-of-continuous-derivatives="4">
<annotation model-charge-form="Teter function with specified parameters" />
<radfunc>
<data npts="256">
  5.463249479774E+01  5.462562781410E+01  5.460510246320E+01  5.457086703749E+01
  5.452328448517E+01  5.446074751895E+01  5.438109273438E+01  5.428994683350E+01
  5.418754679821E+01  5.406824415068E+01  5.393391419841E+01  5.378808054143E+01
  5.361207389335E+01  5.342853557563E+01  5.321239685076E+01  5.299694531335E+01
  5.274935198149E+01  5.251515926245E+01  5.225246262773E+01  5.195795858667E+01
  5.162800526136E+01  5.133584195141E+01  5.101621250526E+01  5.066673089856E+01
  5.028484492189E+01  4.986783359709E+01  4.941280689839E+01  4.904475677028E+01
  4.865225814022E+01  4.823391380009E+01  4.778828164554E+01  4.731387916799E+01
  4.680918921188E+01  4.627266717552E+01  4.570274984857E+01  4.509786609195E+01
  4.445644957763E+01  4.377695381402E+01  4.330205412746E+01  4.280912460565E+01
  4.229774574888E+01  4.176751565053E+01  4.121805354622E+01  4.064900365712E+01
  4.006003933584E+01  3.945086752108E+01  3.882123350469E+01  3.817092601148E+01
  3.749978258846E+01  3.680769529576E+01  3.609461668598E+01  3.536056605302E+01
  3.460563592444E+01  3.382999876331E+01  3.303391383734E+01  3.221773420258E+01
  3.138191373891E+01  3.052701416234E+01  2.965371192675E+01  2.876280491392E+01
  2.785521879686E+01  2.693201294625E+01  2.599438573493E+01  2.504367908026E+01
  2.408138204953E+01  2.310913333961E+01  2.212872242988E+01  2.163605653226E+01
  2.114208919711E+01  2.064708605789E+01  2.015132177367E+01  1.965507985052E+01
  1.915865242678E+01  1.866234002059E+01  1.816645123802E+01  1.767130244034E+01
  1.717721736889E+01  1.668452672630E+01  1.619356771271E+01  1.570468351599E+01
  1.521822275501E+01  1.473453887520E+01  1.425398949593E+01  1.377693570928E+01
  1.330374133033E+01  1.283477209900E+01  1.237039483416E+01  1.191097654077E+01
  1.145688347128E+01  1.100848014288E+01  1.056612831273E+01  1.013018591337E+01
  9.701005951366E+00  9.278935372485E+00  8.864313897166E+00  8.457472830668E+00
  8.058733852694E+00  7.668407791822E+00  7.286793390606E+00  6.914176067703E+00
  6.550826683906E+00  6.197000319428E+00  5.852935070275E+00  5.518850871964E+00
  5.194948359263E+00  4.881407770968E+00  4.578387909061E+00  4.286025161804E+00
  4.004432600521E+00  3.733699159892E+00  3.473888911578E+00  3.225040440903E+00
  2.987166336092E+00  2.760252799248E+00  2.544259387768E+00  2.339118894344E+00
  2.144737372923E+00  1.960994317168E+00  1.787742996912E+00  1.624810956966E+00
  1.472000681306E+00  1.329090424227E+00  1.195835208497E+00  1.071967988801E+00
  9.572009769851E-01  8.512271237035E-01  7.537217490859E-01  6.643443130322E-01
  5.827403136909E-01  5.085433006478E-01  4.413769873584E-01  3.808574454505E-01
  3.265953617318E-01  2.781983371077E-01  2.352732051865E-01  1.974283471667E-01
  1.642759787037E-01  1.354343838831E-01  1.105300712195E-01  8.919982678903E-02
  7.109264021410E-02  5.587148027530E-02  4.321489843630E-02  3.281844053712E-02
  2.439584933268E-02  1.768004340530E-02  1.242386123230E-02  8.400562795593E-03
  5.404085023810E-03  3.249051486360E-03  1.770541030961E-03  8.236243775995E-04
  2.826819498378E-04  4.052032901347E-05  7.308544709187E-06  1.093588514843E-04
  2.877795760962E-04  4.970299473512E-04  7.034084499341E-04  8.835070976748E-04
  1.022664044571E-03  1.113446111573E-03  1.154191099279E-03  1.147637207249E-03
  1.099663547119E-03  1.018161709146E-03  9.120537408249E-04  7.904668713925E-04
  6.620700406502E-04  5.345719565982E-04  4.143752165859E-04  3.063761861663E-04
  2.138960363519E-04  1.387247737428E-04  8.125741157431E-05  4.069973837718E-05
  1.532051424896E-05  2.727380264793E-06  1.452658751962E-07  4.678527095063E-06
  1.354129564468E-05  2.424436904943E-05  3.473118945506E-05  4.345978564271E-05
  4.943172115832E-05  5.217284373341E-05  5.167373709648E-05  4.830005084706E-05
  4.268420256687E-05  3.561025564982E-05  2.790310109265E-05  2.033151413908E-05
  1.353239076110E-05  7.960725785609E-06  3.866943711211E-06  1.300318988617E-06
  1.346966456218E-07  1.107796163329E-07  8.880560907614E-07  2.099087370968E-06
  3.399360979260E-06  4.507139433977E-06  5.229523870386E-06  5.473062680819E-06
  5.239393712827E-06  4.608339339469E-06  3.712337093735E-06  2.706911789053E-06
  1.741996375898E-06  9.383094859449E-07  3.718195813903E-07  6.777392884866E-08
  0.000000000000E+00  0.000000000000E+00  0.000000000000E+00  0.000000000000E+00
  0.000000000000E+00  0.000000000000E+00  0.000000000000E+00  0.000000000000E+00
  0.000000000000E+00  0.000000000000E+00  0.000000000000E+00  0.000000000000E+00
  0.000000000000E+00  0.000000000000E+00  0.000000000000E+00  0.000000000000E+00
  0.000000000000E+00  0.000000000000E+00  0.000000000000E+00  0.000000000000E+00
  0.000000000000E+00  0.000000000000E+00  0.000000000000E+00  0.000000000000E+00
  0.000000000000E+00  0.000000000000E+00  0.000000000000E+00  0.000000000000E+00
  0.000000000000E+00  0.000000000000E+00  0.000000000000E+00  0.000000000000E+00
  0.000000000000E+00  0.000000000000E+00  0.000000000000E+00  0.000000000000E+00
  0.000000000000E+00  0.000000000000E+00  0.000000000000E+00  0.000000000000E+00
  0.000000000000E+00  0.000000000000E+00  0.000000000000E+00  0.000000000000E+00
</data>
</radfunc>
</pseudocore-charge>
<semilocal-potentials set="lj">
<slps n="3" l="s" j="0.5" rc="1.45885293061" eref="-1.72547001287">
<radfunc>
<data npts="256">
  8.215467743827E+00  8.210787239886E+00  8.196804004694E+00  8.173503012920E+00
  8.141164373905E+00  8.098744352454E+00  8.044847579464E+00  7.983359783785E+00
  7.914513191594E+00  7.834612095616E+00  7.745042947504E+00  7.648275046233E+00
  7.532134501512E+00  7.411772827042E+00  7.271002322933E+00  7.131712036780E+00
  6.972899735582E+00  6.823905446586E+00  6.658172572439E+00  6.474102905973E+00
  6.270015622027E+00  6.091159331260E+00  5.897453698764E+00  5.687967466913E+00
  5.461767743251E+00  5.217932294678E+00  4.955564030267E+00  4.746109118952E+00
  4.525407957328E+00  4.293145507513E+00  4.049036301972E+00  3.792830145680E+00
  3.524318115941E+00  3.243338800356E+00  2.949784698859E+00  2.643608700995E+00
  2.324830535279E+00  1.993543074248E+00  1.765816689731E+00  1.532677038806E+00
  1.294213266511E+00  1.050532590047E+00  8.017608611731E-01  5.480430557287E-01
  2.895436826642E-01  2.644710555916E-02 -2.410422296966E-01 -5.126996664625E-01
 -7.882803125110E-01 -1.067519121949E+00 -1.350131085704E+00 -1.635811530917E+00
 -1.924236528035E+00 -2.215063402744E+00 -2.507931348240E+00 -2.802462131644E+00
 -3.098260886752E+00 -3.394916983725E+00 -3.692004964923E+00 -3.989085534773E+00
 -4.285706590518E+00 -4.581404279867E+00 -4.875704071039E+00 -5.168121820538E+00
 -5.458164824183E+00 -5.745332837617E+00 -6.029119053609E+00 -6.169584044238E+00
 -6.309011025339E+00 -6.447335201101E+00 -6.584491527138E+00 -6.720414733647E+00
 -6.855039347482E+00 -6.988299713212E+00 -7.120130013220E+00 -7.250464286943E+00
 -7.379236449401E+00 -7.506380309164E+00 -7.631829585993E+00 -7.755517928413E+00
 -7.877378931521E+00 -7.997346155421E+00 -8.115353144722E+00 -8.231333449601E+00
 -8.345220649036E+00 -8.456948376859E+00 -8.566450351413E+00 -8.673660409626E+00
 -8.778512546441E+00 -8.880940960619E+00 -8.980880107968E+00 -9.078264763124E+00
 -9.173030091021E+00 -9.265111729171E+00 -9.354445881778E+00 -9.440969426603E+00
 -9.524620035265E+00 -9.605336307344E+00 -9.683057918245E+00 -9.757725780283E+00
 -9.829282215776E+00 -9.897671140252E+00 -9.962838253057E+00 -1.002473123181E+01
 -1.008329992637E+01 -1.013849654720E+01 -1.019027584248E+01 -1.023859525804E+01
 -1.028341507417E+01 -1.032469851377E+01 -1.036241181733E+01 -1.039652428152E+01
 -1.042700826001E+01 -1.045383912717E+01 -1.047699520796E+01 -1.049645767918E+01
 -1.051221044995E+01 -1.052424003046E+01 -1.053253539953E+01 -1.053708788176E+01
 -1.053789104450E+01 -1.053494062402E+01 -1.052823448827E+01 -1.051777264138E+01
 -1.050355727293E+01 -1.048559285227E+01 -1.046388626634E+01 -1.043844699729E+01
 -1.040928733511E+01 -1.037642261948E+01 -1.033987150460E+01 -1.029965624073E+01
 -1.025580296639E+01 -1.020834200580E+01 -1.015730816685E+01 -1.010274103586E+01
 -1.004468526670E+01 -9.983190863136E+00 -9.918313455217E+00 -9.850114572111E+00
 -9.778661916114E+00 -9.704029644539E+00 -9.626298668244E+00 -9.545556977388E+00
 -9.461900006364E+00 -9.375431050671E+00 -9.286261748590E+00 -9.194512639813E+00
 -9.100313811530E+00 -9.003805640007E+00 -8.905139632219E+00 -8.804479367911E+00
 -8.702001537358E+00 -8.597897064395E+00 -8.492372297839E+00 -8.385650247507E+00
 -8.277971833453E+00 -8.169597109165E+00 -8.060806411103E+00 -7.951901378384E+00
 -7.843205777762E+00 -7.735066060578E+00 -7.627851570735E+00 -7.521954316018E+00
 -7.417788208285E+00 -7.315787673202E+00 -7.216405530327E+00 -7.120110085086E+00
 -7.027380855502E+00 -6.938703169897E+00 -6.854571056458E+00 -6.773408838336E+00
 -6.693132316323E+00 -6.613801346259E+00 -6.535398200409E+00 -6.457912206228E+00
 -6.381334599420E+00 -6.305655891852E+00 -6.230867664950E+00 -6.156961789664E+00
 -6.083930333359E+00 -6.011765353269E+00 -5.940458716496E+00 -5.870001949813E+00
 -5.800386131693E+00 -5.731601836122E+00 -5.663639132925E+00 -5.596487644065E+00
 -5.530136649667E+00 -5.464575232244E+00 -5.399792443455E+00 -5.335777475339E+00