<?xml version="1.0" encoding="UTF-8" ?>
<psml version="1.1" energy_unit="hartree" length_unit="bohr"
 uuid="87329f20-539e-11e8-7421-43b3fe7d50f6"
 xmlns="http://esl.cecam.org/PSML/ns/1.1">
<provenance creator="ONCVPSP-3.3.0+psml-3.3.0-73 (fully-relativistic)"
 date="2018-05-09">
<annotation action="semilocal-pseudopotential-generation"
 action-cont="projectors-generation" />
<input-file name="oncvpsp-input">
<![CDATA[# atsym z nc nv iexc psfile
Cr 24 3 4 -116133 upf
# n l f
1 0 2.0
2 0 2.0
2 1 6.0
3 0 2.0
3 1 6.0
3 2 5.0
4 0 1.0
# lmax
2
# l rc ep ncon nbas qcut
0 1.3 0.0 4 8 8.9
1 1.3 0.0 4 7 10.0
2 1.7 0.0 4 8 10.0
# lloc lpopt rc5 dvloc0
4 5 1.3 0.0
# l nproj debl
0 2 1.0
1 2 1.0
2 2 1.0
# icmod fcfact
3 5 1.32
# epsh1 epsh2 depsh
-18.0 12.0 0.02
# rlmax drl
6.0 0.01
 0
]]>
</input-file>
</provenance>
<pseudo-atom-spec atomic-label="Cr" atomic-number="24" z-pseudo="14"
 flavor="Hamann&apos;s oncvpsp" relativity="dirac" spin-dft="no"
 core-corrections="yes">
<annotation pseudo-energy="-85.9849806256" />
<exchange-correlation>
<annotation oncvpsp-xc-code="-116133" oncvpsp-xc-type="libxc-interface" />
<libxc-info number-of-functionals="2">
<functional name="Perdew, Burke &amp; Ernzerhof SOL (GGA)" type="exchange"
 id="116" />
<functional name="Perdew, Burke &amp; Ernzerhof SOL (GGA)" type="correlation"
 id="133" />
</libxc-info>
</exchange-correlation>
<valence-configuration total-valence-charge="14">
<shell n="3" l="s" occupation="2" />
<shell n="3" l="p" occupation="6" />
<shell n="3" l="d" occupation="5" />
<shell n="4" l="s" occupation="1" />
</valence-configuration>
</pseudo-atom-spec>
<grid npts="457">
<annotation type="sampled from oncvpsp log grid"
 recipe="r(i:1..N) = r1*exp(a*(i-1)) + r=0; resampled"
 recipe-cont="r1: scale; a: step" scale="0.208333333333E-04"
 step="0.119285708653E-01" delta="0.500000000000E-02" rmax="44.0721796572" />
<grid-data>
  0.000000000000E+00  5.032624347497E-03  1.005227218795E-02  1.508001122169E-02
  2.031956831929E-02  2.548849629768E-02  3.084838375803E-02  3.602293359331E-02
  4.107378401246E-02  4.627749473396E-02  5.152220634232E-02  5.668113689579E-02
  6.235663237039E-02  6.778697285802E-02  7.281641866882E-02  7.821902357048E-02
  8.402247405418E-02  8.918627550078E-02  9.466743067541E-02  1.004854433080E-01
  1.066610157766E-01  1.118736391042E-01  1.173410081958E-01  1.230755727145E-01
  1.290903907501E-01  1.353991585533E-01  1.420162417235E-01  1.471904228460E-01
  1.525531186762E-01  1.581111975076E-01  1.638717778713E-01  1.698422376531E-01
  1.760302235427E-01  1.824436608270E-01  1.890907635409E-01  1.959800449871E-01
  2.031203286396E-01  2.105207594445E-01  2.156035726605E-01  2.208091053189E-01
  2.261403203577E-01  2.316002522524E-01  2.371920087428E-01  2.429187726019E-01
  2.487838034476E-01  2.547904395980E-01  2.609420999717E-01  2.672422860334E-01
  2.736945837874E-01  2.803026658183E-01  2.870702933818E-01  2.940013185453E-01
  3.010996863802E-01  3.083694372082E-01  3.158147089001E-01  3.234397392318E-01
  3.312488682958E-01  3.392465409720E-01  3.474373094572E-01  3.558258358567E-01
  3.644168948376E-01  3.732153763466E-01  3.822262883931E-01  3.914547599001E-01
  4.009060436231E-01  4.105855191403E-01  4.204986959145E-01  4.255446802654E-01
  4.306512164286E-01  4.358190310258E-01  4.410488593981E-01  4.463414457109E-01
  4.516975430594E-01  4.571179135761E-01  4.626033285390E-01  4.681545684815E-01
  4.737724233033E-01  4.794576923829E-01  4.852111846915E-01  4.910337189078E-01
  4.969261235347E-01  5.028892370171E-01  5.089239078613E-01  5.150309947556E-01
  5.212113666927E-01  5.274659030930E-01  5.337954939301E-01  5.402010398573E-01
  5.466834523356E-01  5.532436537636E-01  5.598825776088E-01  5.666011685401E-01
  5.734003825626E-01  5.802811871533E-01  5.872445613992E-01  5.942914961360E-01
  6.014229940896E-01  6.086400700187E-01  6.159437508589E-01  6.233350758692E-01
  6.308150967796E-01  6.383848779410E-01  6.460454964763E-01  6.537980424340E-01
  6.616436189432E-01  6.695833423705E-01  6.776183424790E-01  6.857497625887E-01
  6.939787597398E-01  7.023065048566E-01  7.107341829149E-01  7.192629931099E-01
  7.278941490272E-01  7.366288788155E-01  7.454684253613E-01  7.544140464657E-01
  7.634670150233E-01  7.726286192035E-01  7.819001626340E-01  7.912829645856E-01
  8.007783601606E-01  8.103877004825E-01  8.201123528883E-01  8.299537011230E-01
  8.399131455365E-01  8.499921032829E-01  8.601920085223E-01  8.705143126246E-01
  8.809604843761E-01  8.915320101886E-01  9.022303943108E-01  9.130571590426E-01
  9.240138449511E-01  9.351020110905E-01  9.463232352236E-01  9.576791140463E-01
  9.691712634148E-01  9.808013185758E-01  9.925709343987E-01  1.004481785611E+00
  1.016535567039E+00  1.028733993843E+00  1.041078801769E+00  1.053571747391E+00
  1.066214608359E+00  1.079009183660E+00  1.091957293864E+00  1.105060781390E+00
  1.118321510767E+00  1.131741368896E+00  1.145322265323E+00  1.159066132506E+00
  1.172974926096E+00  1.187050625210E+00  1.201295232712E+00  1.215710775505E+00
  1.230299304811E+00  1.245062896469E+00  1.260003651226E+00  1.275123695041E+00
  1.290425179381E+00  1.305910281534E+00  1.321581204912E+00  1.337440179371E+00
  1.353489461524E+00  1.369731335062E+00  1.386168111083E+00  1.402802128416E+00
  1.419635753957E+00  1.436671383004E+00  1.453911439600E+00  1.471358376875E+00
  1.489014677398E+00  1.506882853527E+00  1.524965447769E+00  1.543265033142E+00
  1.561784213540E+00  1.580525624102E+00  1.599491931592E+00  1.618685834771E+00
  1.638110064788E+00  1.657767385566E+00  1.677660594192E+00  1.697792521323E+00
  1.718166031578E+00  1.738784023957E+00  1.759649432245E+00  1.780765225432E+00
  1.802134408137E+00  1.823760021035E+00  1.845645141287E+00  1.867792882983E+00
  1.890206397578E+00  1.912888874349E+00  1.935843540841E+00  1.959073663332E+00
  1.982582547292E+00  2.006373537859E+00  2.030450020313E+00  2.054815420557E+00
  2.079473205604E+00  2.104426884071E+00  2.129680006680E+00  2.155236166760E+00
  2.181099000761E+00  2.207272188770E+00  2.233759455036E+00  2.260564568496E+00
  2.287691343318E+00  2.315143639438E+00  2.342925363111E+00  2.371040467468E+00
  2.399492953078E+00  2.428286868515E+00  2.457426310937E+00  2.486915426668E+00
  2.516758411788E+00  2.546959512730E+00  2.577523026883E+00  2.608453303205E+00
  2.639754742844E+00  2.671431799758E+00  2.703488981355E+00  2.735930849131E+00
  2.768762019321E+00  2.801987163552E+00  2.835611009515E+00  2.869638341629E+00
  2.904074001729E+00  2.938922889750E+00  2.974189964427E+00  3.009880244000E+00
  3.045998806928E+00  3.082550792611E+00  3.119541402122E+00  3.156975898948E+00
  3.194859609735E+00  3.233197925052E+00  3.271996300152E+00  3.311260255754E+00
  3.350995378823E+00  3.391207323369E+00  3.431901811250E+00  3.473084632985E+00
  3.514761648580E+00  3.556938788363E+00  3.599622053824E+00  3.642817518470E+00
  3.686531328691E+00  3.730769704636E+00  3.775538941091E+00  3.820845408384E+00
  3.866695553285E+00  3.913095899924E+00  3.960053050723E+00  4.007573687332E+00
  4.055664571580E+00  4.104332546439E+00  4.153584536996E+00  4.203427551440E+00
  4.253868682058E+00  4.304915106242E+00  4.356574087517E+00  4.408852976567E+00
  4.461759212286E+00  4.515300322834E+00  4.569483926708E+00  4.624317733828E+00
  4.679809546634E+00  4.735967261194E+00  4.792798868328E+00  4.850312454748E+00
  4.908516204205E+00  4.967418398655E+00  5.027027419439E+00  5.087351748472E+00
  5.148399969454E+00  5.210180769088E+00  5.272702938317E+00  5.335975373576E+00
  5.400007078059E+00  5.464807162996E+00  5.530384848952E+00  5.596749467139E+00
  5.663910460745E+00  5.731877386274E+00  5.800659914909E+00  5.870267833888E+00
  5.940711047895E+00  6.011999580470E+00  6.084143575435E+00  6.157153298341E+00
  6.231039137921E+00  6.305811607576E+00  6.381481346867E+00  6.458059123029E+00
  6.535555832505E+00  6.613982502495E+00  6.693350292525E+00  6.773670496036E+00
  6.854954541988E+00  6.937213996492E+00  7.020460564450E+00  7.104706091223E+00
  7.189962564318E+00  7.276242115090E+00  7.363557020471E+00  7.451919704716E+00
  7.541342741173E+00  7.631838854067E+00  7.723420920316E+00  7.816101971360E+00
  7.909895195016E+00  8.004813937356E+00  8.100871704605E+00  8.198082165060E+00
  8.296459151040E+00  8.396016660853E+00  8.496768860783E+00  8.598730087113E+00
  8.701914848158E+00  8.806337826336E+00  8.912013880252E+00  9.018958046815E+00
  9.127185543377E+00  9.236711769897E+00  9.347552311136E+00  9.459722938870E+00
  9.573239614136E+00  9.688118489506E+00  9.804375911380E+00  9.922028422316E+00
  1.004109276338E+01  1.016158587654E+01  1.028352490706E+01  1.040692720595E+01
  1.053181033242E+01  1.065819205641E+01  1.078609036109E+01  1.091552344542E+01
  1.104650972676E+01  1.117906784348E+01  1.131321665761E+01  1.144897525750E+01
  1.158636296059E+01  1.172539931611E+01  1.186610410791E+01  1.200849735720E+01
  1.215259932549E+01  1.229843051740E+01  1.244601168360E+01  1.259536382381E+01
  1.274650818969E+01  1.289946628797E+01  1.305425988342E+01  1.321091100203E+01
  1.336944193405E+01  1.352987523726E+01  1.369223374011E+01  1.385654054499E+01
  1.402281903153E+01  1.419109285991E+01  1.436138597422E+01  1.453372260591E+01
  1.470812727719E+01  1.488462480451E+01  1.506324030217E+01  1.524399918579E+01
  1.542692717602E+01  1.561205030213E+01  1.579939490576E+01  1.598898764463E+01
  1.618085549636E+01  1.637502576232E+01  1.657152607147E+01  1.677038438433E+01
  1.697162899694E+01  1.717528854490E+01  1.738139200744E+01  1.758996871153E+01
  1.780104833607E+01  1.801466091610E+01  1.823083684709E+01  1.844960688926E+01
  1.867100217193E+01  1.889505419799E+01  1.912179484837E+01  1.935125638655E+01
  1.958347146319E+01  1.981847312075E+01  2.005629479820E+01  2.029697033577E+01
  2.054053397980E+01  2.078702038756E+01  2.103646463221E+01  2.128890220780E+01
  2.154436903429E+01  2.180290146270E+01  2.206453628026E+01  2.232931071562E+01
  2.259726244421E+01  2.286842959354E+01  2.314285074866E+01  2.342056495764E+01
  2.370161173713E+01  2.398603107798E+01  2.427386345092E+01  2.456514981233E+01
  2.485993161007E+01  2.515825078940E+01  2.546014979887E+01  2.576567159645E+01
  2.607485965561E+01  2.638775797148E+01  2.670441106714E+01  2.702486399994E+01
  2.734916236794E+01  2.767735231636E+01  2.800948054415E+01  2.834559431068E+01
  2.868574144241E+01  2.902997033972E+01  2.937832998380E+01  2.973086994360E+01
  3.008764038293E+01  3.044869206752E+01  3.081407637233E+01  3.118384528880E+01
  3.155805143227E+01  3.193674804945E+01  3.231998902605E+01  3.270782889436E+01
  3.310032284109E+01  3.349752671518E+01  3.389949703577E+01  3.430629100020E+01
  3.471796649220E+01  3.513458209010E+01  3.555619707519E+01  3.598287144009E+01
  3.641466589737E+01  3.685164188814E+01  3.729386159079E+01  3.774138792988E+01
  3.819428458504E+01  3.865261600006E+01  3.911644739206E+01  3.958584476077E+01
  4.006087489790E+01  4.054160539667E+01  4.102810466143E+01  4.152044191737E+01
  4.201868722038E+01  4.252291146702E+01  4.303318640463E+01  4.354958464148E+01
  4.407217965718E+01
</grid-data>
</grid>
<valence-charge total-charge="14" is-unscreening-charge="yes"
 rescaled-to-z-pseudo="no">
<radfunc>
<data npts="457">
  4.558115639838E+00  4.562119843485E+00  4.574088618311E+00  4.594052911333E+00
  4.623338679931E+00  4.660691185327E+00  4.708272011800E+00  4.762722437538E+00
  4.823902972644E+00  4.895191274865E+00  4.975470378743E+00  5.062637652668E+00
  5.167857625995E+00  5.277600119537E+00  5.387077126604E+00  5.512988466391E+00
  5.657726238530E+00  5.794670479327E+00  5.948326750997E+00  6.120640667063E+00
  6.313758190489E+00  6.484808807714E+00  6.671990496468E+00  6.876709482028E+00
  7.100469109302E+00  7.344870506139E+00  7.611611466107E+00  7.827401591009E+00
  8.057551432611E+00  8.302874321952E+00  8.564205800381E+00  8.842399614743E+00
  9.138322614418E+00  9.452848366807E+00  9.786849285025E+00  1.014118703730E+01
  1.051670098262E+01  1.091419435193E+01  1.119177417202E+01  1.147966335096E+01
  1.177805048952E+01  1.208710400013E+01  1.240696859379E+01  1.273776142044E+01
  1.307956784181E+01  1.343243681739E+01  1.379637588493E+01  1.417134571943E+01
  1.455725425739E+01  1.495395037696E+01  1.536121712965E+01  1.577876452549E+01
  1.620622188142E+01  1.664312975200E+01  1.708893147281E+01  1.754296436052E+01
  1.800445062911E+01  1.847248809998E+01  1.894604080469E+01  1.942392960249E+01
  1.990482296152E+01  2.038722808173E+01  2.086948256976E+01  2.134974691040E+01
  2.182599801591E+01  2.229602417207E+01  2.275742173846E+01  2.298408084898E+01
  2.320759399783E+01  2.342760666006E+01  2.364375258447E+01  2.385565401199E+01
  2.406292195301E+01  2.426515652765E+01  2.446194737288E+01  2.465287412042E+01
  2.483750694944E+01  2.501540721769E+01  2.518612817499E+01  2.534921576232E+01
  2.550420950008E+01  2.565064346835E+01  2.578804738200E+01  2.591594776284E+01
  2.603386921081E+01  2.614133577538E+01  2.623787242811E+01  2.632300663629E+01
  2.639627003711E+01  2.645720021085E+01  2.650534255078E+01  2.654025222631E+01
  2.656149623528E+01  2.656865553954E+01  2.656132727755E+01  2.653912704570E+01
  2.650169123946E+01  2.644867944356E+01  2.637977685938E+01  2.629469675617E+01
  2.619318293133E+01  2.607501216359E+01  2.593999664159E+01  2.578798634894E+01
  2.561887138578E+01  2.543258420541E+01  2.522910174392E+01  2.500844741947E+01
  2.477069297758E+01  2.451596015794E+01  2.424442215823E+01  2.395630487048E+01
  2.365188786569E+01  2.333150510311E+01  2.299554534181E+01  2.264445223303E+01
  2.227872407419E+01  2.189891320700E+01  2.150562504503E+01  2.109951671892E+01
  2.068129533070E+01  2.025171581243E+01  1.981157838849E+01  1.936172564513E+01
  1.890303921547E+01  1.843643609313E+01  1.796286459249E+01  1.748329997875E+01
  1.699873979589E+01  1.651019892564E+01  1.601870441524E+01  1.552529011636E+01
  1.503099118130E+01  1.453683846650E+01  1.404385289606E+01  1.355303984028E+01
  1.306538356596E+01  1.258184181544E+01  1.210334057150E+01  1.163076906393E+01
  1.116497507127E+01  1.070676056858E+01  1.025687776767E+01  9.816025591574E+00
  9.384846619466E+00  8.963924531619E+00  8.553782077354E+00  8.154879581343E+00
  7.767613996096E+00  7.392318500635E+00  7.029262637651E+00  6.678652973950E+00
  6.340634261900E+00  6.015291073059E+00  5.702649869368E+00  5.402681472307E+00
  5.115303886414E+00  4.840385430583E+00  4.577748128686E+00  4.327171310250E+00
  4.088395372292E+00  3.861125654784E+00  3.645037084333E+00  3.439781672479E+00
  3.244997818957E+00  3.060313461990E+00  2.885349069128E+00  2.719720468170E+00
  2.563041500765E+00  2.414926477412E+00  2.274992426203E+00  2.142861128504E+00
  2.018160937669E+00  1.900528379458E+00  1.789609535443E+00  1.685061213230E+00
  1.586551909837E+00  1.493762576963E+00  1.406387199110E+00  1.324133197461E+00
  1.246721674010E+00  1.173887511446E+00  1.105379344723E+00  1.040959419855E+00
  9.804033542752E-01  9.234994768625E-01  8.700467850142E-01  8.198521628093E-01
  7.727304080035E-01  7.285041766509E-01  6.870039229313E-01  6.480678106595E-01
  6.115415993643E-01  5.772785077240E-01  5.451390570454E-01  5.149908973560E-01
  4.867086185559E-01  4.601735489524E-01  4.352735433638E-01  4.119027628429E-01
  3.899614479327E-01  3.693556872255E-01  3.499971828551E-01  3.318030144127E-01
  3.146954026410E-01  2.986014741237E-01  2.834530280628E-01  2.691863061070E-01
  2.557417660815E-01  2.430638603553E-01  2.311008194796E-01  2.198044416351E-01
  2.091298883372E-01  1.990354867657E-01  1.894825390130E-01  1.804351384769E-01
  1.718599935611E-01  1.637262587945E-01  1.560053734251E-01  1.486709075051E-01
  1.416984154363E-01  1.350652969132E-01  1.287506651659E-01  1.227352223750E-01
  1.170011421065E-01  1.115319585907E-01  1.063124626503E-01  1.013286040659E-01
  9.656740015401E-02  9.201685032181E-02  8.766585635412E-02  8.350414818280E-02
  7.952221488493E-02  7.571124065454E-02  7.206304549315E-02  6.857003036593E-02
  6.522512657419E-02  6.202174909907E-02  5.895375367748E-02  5.601539737761E-02
  5.320130244886E-02  5.050642322920E-02  4.792601590107E-02  4.545561089608E-02
  4.309098775763E-02  4.082815227986E-02  3.866331575079E-02  3.659287613659E-02
  3.461340105365E-02  3.272161238421E-02  3.091437240039E-02  2.918867127096E-02
  2.754161583378E-02  2.597041952569E-02  2.447239337042E-02  2.304493793296E-02
  2.168553615720E-02  2.039174701100E-02  1.916119987012E-02  1.799158957903E-02
  1.688067213270E-02  1.582626092881E-02  1.482622354251E-02  1.387847899283E-02
  1.298099543863E-02  1.213178829214E-02  1.132891870291E-02  1.057049238099E-02
  9.854658726546E-03  9.179610233090E-03  8.543582131396E-03  7.944852241311E-03
  7.381740998363E-03  6.852611622339E-03  6.355870395381E-03  5.889967017980E-03
  5.453395012453E-03  5.044692145153E-03  4.662440840724E-03  4.305268564145E-03
  3.971848149060E-03  3.660898053836E-03  3.371182529912E-03  3.101511690169E-03
  2.850741468156E-03  2.617773462075E-03  2.401554660240E-03  2.201077047403E-03
  2.015377093691E-03  1.843535129989E-03  1.684674615382E-03  1.537961303762E-03
  1.402602317848E-03  1.277845139766E-03  1.162976527946E-03  1.057321370418E-03
  9.602414847704E-04  8.711343748968E-04  7.894319544807E-04  7.145992467250E-04
  6.461330693546E-04  5.835607133086E-04  5.264386228590E-04  4.743510841787E-04
  4.269089286202E-04  3.837482562088E-04  3.445291840948E-04  3.089346239700E-04
  2.766690917530E-04  2.474575521811E-04  2.210443003385E-04  1.971918815959E-04
  1.756800509411E-04  1.563047722517E-04  1.388772576895E-04  1.232230470907E-04
  1.091811269719E-04  9.660308857355E-05  8.535232421133E-05  7.530326109258E-05
  6.634063167826E-05  5.835877962162E-05  5.126100028728E-05  4.495891484330E-05
  3.937187691939E-05  3.442641083191E-05  3.005568038814E-05  2.619898729471E-05
  2.280129820724E-05  1.981279946790E-05  1.718847858542E-05  1.488773151570E-05
  1.287399480361E-05  1.111440164558E-05  9.579460930517E-06  8.242758313971E-06
  7.080678377066E-06  6.072146919909E-06  5.198392438248E-06  4.442725833592E-06
  3.790337410951E-06  3.228110225282E-06  2.744448847880E-06  2.329122637469E-06
  1.973122617664E-06  1.668531082604E-06  1.408403075933E-06  1.186658914406E-06
  9.979869562354E-07  8.377558452029E-07  7.019354944941E-07  5.870261085589E-07
  4.899945766275E-07  4.082176078102E-07  3.394310149541E-07  2.816845902545E-07
  2.333020321079E-07  1.928455727311E-07  1.590842760455E-07  1.309677475787E-07
  1.075980662472E-07  8.821620867146E-08  7.217768025209E-08  5.893389545723E-08
  4.802062413169E-08  3.904659091090E-08  3.168278416713E-08  2.565314077376E-08
  2.072653103752E-08  1.670987538668E-08  1.344224088396E-08  1.078979091063E-08
  8.641475188112E-09  6.905360555933E-09  5.505514878521E-09  4.379367174284E-09
  3.475477597861E-09  2.751652458063E-09  1.142468260572E-09  8.897105390472E-10
  6.909702130039E-10  5.351339301109E-10  4.132801937622E-10  3.182671424786E-10
  2.443937453935E-10  1.871221480575E-10  1.428507990400E-10  1.087296185967E-10
  8.250986837134E-11  6.242257491468E-11  4.708037598818E-11  3.539852063622E-11
  2.653148273594E-11  1.982226165716E-11  1.476195908552E-11  1.095765228315E-11
  8.106943582408E-12  5.977864601304E-12  4.393060953694E-12  3.217387226053E-12
  2.348209684271E-12  1.707851525696E-12  1.237727587216E-12  8.938065711101E-13
  6.431126985526E-13  4.610383098377E-13  3.292868668667E-13  2.343042183692E-13
  1.660866403997E-13  1.172785355169E-13  8.249197613842E-14  5.779550564361E-14
  4.033157753596E-14  2.803137956872E-14  1.940309176694E-14  1.337529679136E-14
  9.181645076704E-15  6.276253128415E-15  4.271902219085E-15  2.895081628358E-15
  1.953423743380E-15  1.312216380368E-15  8.775355452630E-16  5.841856601349E-16
  3.871153023231E-16  2.553342810396E-16  1.676227781677E-16  1.095185146339E-16
  7.121112457116E-17  4.607749029186E-17  2.966777935849E-17  1.900687803253E-17
  1.211546305801E-17  7.683274932454E-18  4.847336634627E-18  3.042169739561E-18
  1.899152465490E-18  1.179246769365E-18  7.282660142393E-19  4.472883107970E-19
  2.731923545218E-19  1.659220114523E-19  1.001992727377E-19  6.016175736208E-20
  3.591217866090E-20  2.131070594349E-20  1.257065597306E-20  7.370396676795E-21
  4.295018160688E-21  2.487415653294E-21  1.431556520405E-21  8.186767324838E-22
  4.651866355392E-22  0.000000000000E+00  0.000000000000E+00  0.000000000000E+00
  0.000000000000E+00
</data>
</radfunc>
</valence-charge>
<pseudocore-charge matching-radius="0.473772423303"
 number-of-continuous-derivatives="4">
<annotation model-charge-form="Teter function with specified parameters" />
<radfunc>
<data npts="290">
  1.249928487071E+02  1.249672769983E+02  1.248908546606E+02  1.247634229719E+02
  1.245765901648E+02  1.243384629071E+02  1.240354020080E+02  1.236889612523E+02
  1.233001775084E+02  1.228477982540E+02  1.223391839642E+02  1.217879092858E+02
  1.211238199417E+02  1.204327643412E+02  1.197449813399E+02  1.189559224182E+02
  1.180514811652E+02  1.171982916781E+02  1.162439267022E+02  1.151773685770E+02
  1.139866623852E+02  1.129360744919E+02  1.117907626959E+02  1.105433310789E+02
  1.091860462091E+02  1.077108767024E+02  1.061095486599E+02  1.048206864134E+02
  1.034525196692E+02  1.020014602126E+02  1.004639581379E+02  9.883654082793E+01
  9.711585811379E+01  9.529873412751E+01  9.338222632247E+01  9.136369207742E+01
  8.924086320617E+01  8.701192856401E+01  8.546637512446E+01  8.387286975431E+01
  8.223133478533E+01  8.054184832358E+01  7.880465921092E+01  7.702020244743E+01
  7.518911497286E+01  7.331225168237E+01  7.139070152693E+01  6.942580352103E+01
  6.741916245153E+01  6.537266404966E+01  6.328848935565E+01  6.116912797127E+01
  5.901738986099E+01  5.683641532820E+01  5.462968275940E+01  5.240101369855E+01
  5.015457478602E+01  4.789487607477E+01  4.562676522081E+01  4.335541703943E+01
  4.108631792357E+01  3.882524464038E+01  3.657823705740E+01  3.435156440498E+01
  3.215168475810E+01  2.998519752185E+01  2.785878883232E+01  2.681271205271E+01
  2.577916994033E+01  2.475899410525E+01  2.375300882975E+01  2.276202859655E+01
  2.178685553580E+01  2.082827679905E+01  1.988706186932E+01  1.896395981771E+01
  1.805969651803E+01  1.717497183217E+01  1.631045678007E+01  1.546679070942E+01
  1.464457848119E+01  1.384438768826E+01  1.306674592568E+01  1.231213813157E+01
  1.158100401916E+01  1.087373562066E+01  1.019067496472E+01  9.532111909577E+00
  8.898282154087E+00  8.289365449414E+00  7.705484033566E+00  7.146701310955E+00
  6.613020798398E+00  6.104385358166E+00  5.620676737472E+00  5.161715432340E+00
  4.727260891961E+00  4.317012077551E+00  3.930608387204E+00  3.567630955480E+00
  3.227604333326E+00  2.909998550476E+00  2.614231558768E+00  2.339672050801E+00
  2.085642644108E+00  1.851423416628E+00  1.636255774655E+00  1.439346629792E+00
  1.259872856796E+00  1.096985999526E+00  9.498171877674E-01  8.174822234088E-01
  6.990867905194E-01  5.937317403035E-01  5.005183988843E-01  4.185538434192E-01
  3.469560903001E-01  2.848591382269E-01  2.314178088388E-01  1.858123284196E-01
  1.472525960156E-01  1.149820861524E-01  8.828133823981E-02  6.647098969525E-02
  4.891431577860E-02  3.501924605186E-02  2.423983517126E-02  1.607717427456E-02
  1.007973839448E-02  5.843174938266E-03  3.009548122371E-03  1.266064116496E-03
  3.433112898050E-04  1.305910903670E-05  8.566765115721E-05  4.071671029549E-04
  8.560727777394E-04  1.340005857239E-03  1.792193067658E-03  2.167919666222E-03
  2.441009342128E-03  2.600401876341E-03  2.646894676568E-03  2.590107696550E-03
  2.445722925443E-03  2.233039829354E-03  1.972877147947E-03  1.685839660662E-03
  1.390956356026E-03  1.104684315403E-03  8.402610280472E-04  6.073772525281E-04
  4.121333688759E-04  2.572348146907E-04  1.423769827021E-04  6.476709869497E-05
  1.973020804398E-05  1.348463338593E-06  3.087282036320E-06  1.836836081173E-05
  4.105760272017E-05  6.584524447566E-05  8.850529983173E-05  1.060312560828E-04
  1.166541665368E-04  1.197573040373E-04  1.157078914255E-04  1.056307351362E-04
  9.115063889309E-05  7.413021799847E-05  5.642730306968E-05  3.969182077458E-05
  2.521632531968E-05  1.384780033301E-05  5.961594349396E-06  1.492040132853E-06
  9.030434794221E-09  8.260591731507E-07  3.123302570286E-06  6.069325886233E-06
  8.926860678615E-06  1.113150247308E-05  1.233665438194E-05  1.242299595292E-05
  1.147554955300E-05  9.735443994656E-06  7.536244654403E-06  5.235918015370E-06
  3.155036890012E-06  1.529858663059E-06  4.857883702008E-07  3.300096250045E-08
  0.000000000000E+00  0.000000000000E+00  0.000000000000E+00  0.000000000000E+00
  0.000000000000E+00  0.000000000000E+00  0.000000000000E+00  0.000000000000E+00
  0.000000000000E+00  0.000000000000E+00  0.000000000000E+00  0.000000000000E+00
  0.000000000000E+00  0.000000000000E+00  0.000000000000E+00  0.000000000000E+00
  0.000000000000E+00  0.000000000000E+00  0.000000000000E+00  0.000000000000E+00
  0.000000000000E+00  0.000000000000E+00  0.000000000000E+00  0.000000000000E+00
  0.000000000000E+00  0.000000000000E+00  0.000000000000E+00  0.000000000000E+00
  0.000000000000E+00  0.000000000000E+00  0.000000000000E+00  0.000000000000E+00
  0.000000000000E+00  0.000000000000E+00  0.000000000000E+00  0.000000000000E+00
  0.000000000000E+00  0.000000000000E+00  0.000000000000E+00  0.000000000000E+00
  0.000000000000E+00  0.000000000000E+00  0.000000000000E+00  0.000000000000E+00
  0.000000000000E+00  0.000000000000E+00  0.000000000000E+00  0.000000000000E+00
  0.000000000000E+00  0.000000000000E+00  0.000000000000E+00  0.000000000000E+00
  0.000000000000E+00  0.000000000000E+00  0.000000000000E+00  0.000000000000E+00
  0.000000000000E+00  0.000000000000E+00  0.000000000000E+00  0.000000000000E+00
  0.000000000000E+00  0.000000000000E+00  0.000000000000E+00  0.000000000000E+00
  0.000000000000E+00  0.000000000000E+00  0.000000000000E+00  0.000000000000E+00
  0.000000000000E+00  0.000000000000E+00  0.000000000000E+00  0.000000000000E+00
  0.000000000000E+00  0.000000000000E+00  0.000000000000E+00  0.000000000000E+00
  0.000000000000E+00  0.000000000000E+00  0.000000000000E+00  0.000000000000E+00
  0.000000000000E+00  0.000000000000E+00  0.000000000000E+00  0.000000000000E+00
  0.000000000000E+00  0.000000000000E+00  0.000000000000E+00  0.000000000000E+00
  0.000000000000E+00  0.000000000000E+00  0.000000000000E+00  0.000000000000E+00
  0.000000000000E+00  0.000000000000E+00  0.000000000000E+00  0.000000000000E+00
  0.000000000000E+00  0.000000000000E+00
</data>
</radfunc>
</pseudocore-charge>
<semilocal-potentials set="lj">
<slps n="3" l="s" j="0.5" rc="1.30591028153" eref="-2.71049375095">
<radfunc>
<data npts="290">
 -1.100672219806E+01 -1.100805948048E+01 -1.101202173841E+01 -1.101862436450E+01
 -1.102830511303E+01 -1.104064593138E+01 -1.105635605327E+01 -1.107432080904E+01
 -1.109448887603E+01 -1.111796615966E+01 -1.114437510262E+01 -1.117301500863E+01
 -1.120753798444E+01 -1.124348864839E+01 -1.127929542733E+01 -1.132040741002E+01
 -1.136757442466E+01 -1.141211145995E+01 -1.146197969628E+01 -1.151777322681E+01
 -1.158014056999E+01 -1.163523921617E+01 -1.169538201173E+01 -1.176097916092E+01
 -1.183246345841E+01 -1.191028912599E+01 -1.199492995393E+01 -1.206317764735E+01
 -1.213574664789E+01 -1.221285207431E+01 -1.229471073630E+01 -1.238153949229E+01
 -1.247355330222E+01 -1.257096294129E+01 -1.267397233952E+01 -1.278277551052E+01
 -1.289755303275E+01 -1.301846804619E+01 -1.310255854307E+01 -1.318947549426E+01
 -1.327924821640E+01 -1.337189917727E+01 -1.346744315536E+01 -1.356588634346E+01
 -1.366722539531E+01 -1.377144641451E+01 -1.387852388541E+01 -1.398841954606E+01
 -1.410108120383E+01 -1.421644149468E+01 -1.433441658809E+01 -1.445490483996E+01
 -1.457778539725E+01 -1.470291675872E+01 -1.483013529794E+01 -1.495925375624E+01
 -1.509005971554E+01 -1.522231406385E+01 -1.535574946977E+01 -1.549006888742E+01
 -1.562494411929E+01 -1.576001447298E+01 -1.589488555860E+01 -1.602912828734E+01
 -1.616227814912E+01 -1.629383486756E+01 -1.642326255362E+01 -1.648700098667E+01
 -1.654999050245E+01 -1.661215458538E+01 -1.667341479633E+01 -1.673369087864E+01
 -1.679290088289E+01 -1.685096131108E+01 -1.690778728051E+01 -1.696329270712E+01
 -1.701739050745E+01 -1.706999281736E+01 -1.712101122518E+01 -1.717035701569E+01
 -1.721794142034E+01 -1.726367586852E+01 -1.730747223351E+01 -1.734924306625E+01
 -1.738890181000E+01 -1.742636298885E+01 -1.746154236380E+01 -1.749435705147E+01
 -1.752472560192E+01 -1.755256803471E+01 -1.757780583462E+01 -1.760036191130E+01
 -1.762016052988E+01 -1.763712722190E+01 -1.765118868752E+01 -1.766227270133E+01
 -1.767030803355E+01 -1.767522439812E+01 -1.767695243677E+01 -1.767542374630E+01
 -1.767057095265E+01 -1.766232783311E+01 -1.765062948428E+01 -1.763541253155E+01
 -1.761661537332E+01 -1.759417845206E+01 -1.756804454328E+01 -1.753815905311E+01
 -1.750447031503E+01 -1.746692987650E+01 -1.742549276637E+01 -1.738011773433E+01
 -1.733076745397E+01 -1.727740868163E+01 -1.722001236397E+01 -1.715855368832E+01
 -1.709301207173E+01 -1.702337108662E+01 -1.694961832358E+01 -1.687174519553E+01
 -1.678974669020E+01 -1.670362108227E+01 -1.661336961949E+01 -1.651899620078E+01
 -1.642050706685E+01 -1.631791052638E+01 -1.621121674232E+01 -1.610043760388E+01
 -1.598558671047E+01 -1.586667949371E+01 -1.574373350365E+01 -1.561676888483E+01
 -1.548580906735E+01 -1.535088169763E+01 -1.521201983288E+01 -1.506926342248E+01
 -1.492266109819E+01 -1.477227229359E+01 -1.461816971010E+01 -1.446044214357E+01
 -1.429919767973E+01 -1.413456725987E+01 -1.396670860845E+01 -1.379581050261E+01
 -1.362209734873E+01 -1.344583401330E+01 -1.326733083463E+01 -1.308694871797E+01
 -1.290510418981E+01 -1.272227425809E+01 -1.253900089459E+01 -1.235589492480E+01
 -1.217363908105E+01 -1.199298994857E+01 -1.181477851373E+01 -1.163990901265E+01