<?xml version="1.0" encoding="UTF-8" ?>
<psml version="1.1" energy_unit="hartree" length_unit="bohr"
 uuid="a6f8b4f0-53a0-11e8-7e8a-32913fddf9da"
 xmlns="http://esl.cecam.org/PSML/ns/1.1">
<provenance creator="ONCVPSP-3.3.0+psml-3.3.0-73 (fully-relativistic)"
 date="2018-05-09">
<annotation action="semilocal-pseudopotential-generation"
 action-cont="projectors-generation" />
<input-file name="oncvpsp-input">
<![CDATA[# atsym z nc nv iexc psfile
Cr 24 3 4 -116133 upf
# n l f
1 0 2.0
2 0 2.0
2 1 6.0
3 0 2.0
3 1 6.0
3 2 5.0
4 0 1.0
# lmax
2
# l rc ep ncon nbas qcut
0 1.1 0.0 4 8 10.8
1 1.1 0.0 4 7 11.0
2 1.4 0.0 4 8 11.0
# lloc lpopt rc5 dvloc0
4 5 1.1 0.0
# l nproj debl
0 2 1.0
1 2 1.0
2 2 1.0
# icmod fcfact
3 4.5 1.6
# epsh1 epsh2 depsh
-18.0 12.0 0.02
# rlmax drl
6.0 0.01
 0
]]>
</input-file>
</provenance>
<pseudo-atom-spec atomic-label="Cr" atomic-number="24" z-pseudo="14"
 flavor="Hamann&apos;s oncvpsp" relativity="dirac" spin-dft="no"
 core-corrections="yes">
<annotation pseudo-energy="-86.4856131762" />
<exchange-correlation>
<annotation oncvpsp-xc-code="-116133" oncvpsp-xc-type="libxc-interface" />
<libxc-info number-of-functionals="2">
<functional name="Perdew, Burke &amp; Ernzerhof SOL (GGA)" type="exchange"
 id="116" />
<functional name="Perdew, Burke &amp; Ernzerhof SOL (GGA)" type="correlation"
 id="133" />
</libxc-info>
</exchange-correlation>
<valence-configuration total-valence-charge="14">
<shell n="3" l="s" occupation="2" />
<shell n="3" l="p" occupation="6" />
<shell n="3" l="d" occupation="5" />
<shell n="4" l="s" occupation="1" />
</valence-configuration>
</pseudo-atom-spec>
<grid npts="457">
<annotation type="sampled from oncvpsp log grid"
 recipe="r(i:1..N) = r1*exp(a*(i-1)) + r=0; resampled"
 recipe-cont="r1: scale; a: step" scale="0.208333333333E-04"
 step="0.119285708653E-01" delta="0.500000000000E-02" rmax="44.0721796572" />
<grid-data>
  0.000000000000E+00  5.032624347497E-03  1.005227218795E-02  1.508001122169E-02
  2.031956831929E-02  2.548849629768E-02  3.084838375803E-02  3.602293359331E-02
  4.107378401246E-02  4.627749473396E-02  5.152220634232E-02  5.668113689579E-02
  6.235663237039E-02  6.778697285802E-02  7.281641866882E-02  7.821902357048E-02
  8.402247405418E-02  8.918627550078E-02  9.466743067541E-02  1.004854433080E-01
  1.066610157766E-01  1.118736391042E-01  1.173410081958E-01  1.230755727145E-01
  1.290903907501E-01  1.353991585533E-01  1.420162417235E-01  1.471904228460E-01
  1.525531186762E-01  1.581111975076E-01  1.638717778713E-01  1.698422376531E-01
  1.760302235427E-01  1.824436608270E-01  1.890907635409E-01  1.959800449871E-01
  2.031203286396E-01  2.105207594445E-01  2.156035726605E-01  2.208091053189E-01
  2.261403203577E-01  2.316002522524E-01  2.371920087428E-01  2.429187726019E-01
  2.487838034476E-01  2.547904395980E-01  2.609420999717E-01  2.672422860334E-01
  2.736945837874E-01  2.803026658183E-01  2.870702933818E-01  2.940013185453E-01
  3.010996863802E-01  3.083694372082E-01  3.158147089001E-01  3.234397392318E-01
  3.312488682958E-01  3.392465409720E-01  3.474373094572E-01  3.558258358567E-01
  3.644168948376E-01  3.732153763466E-01  3.822262883931E-01  3.914547599001E-01
  4.009060436231E-01  4.105855191403E-01  4.204986959145E-01  4.255446802654E-01
  4.306512164286E-01  4.358190310258E-01  4.410488593981E-01  4.463414457109E-01
  4.516975430594E-01  4.571179135761E-01  4.626033285390E-01  4.681545684815E-01
  4.737724233033E-01  4.794576923829E-01  4.852111846915E-01  4.910337189078E-01
  4.969261235347E-01  5.028892370171E-01  5.089239078613E-01  5.150309947556E-01
  5.212113666927E-01  5.274659030930E-01  5.337954939301E-01  5.402010398573E-01
  5.466834523356E-01  5.532436537636E-01  5.598825776088E-01  5.666011685401E-01
  5.734003825626E-01  5.802811871533E-01  5.872445613992E-01  5.942914961360E-01
  6.014229940896E-01  6.086400700187E-01  6.159437508589E-01  6.233350758692E-01
  6.308150967796E-01  6.383848779410E-01  6.460454964763E-01  6.537980424340E-01
  6.616436189432E-01  6.695833423705E-01  6.776183424790E-01  6.857497625887E-01
  6.939787597398E-01  7.023065048566E-01  7.107341829149E-01  7.192629931099E-01
  7.278941490272E-01  7.366288788155E-01  7.454684253613E-01  7.544140464657E-01
  7.634670150233E-01  7.726286192035E-01  7.819001626340E-01  7.912829645856E-01
  8.007783601606E-01  8.103877004825E-01  8.201123528883E-01  8.299537011230E-01
  8.399131455365E-01  8.499921032829E-01  8.601920085223E-01  8.705143126246E-01
  8.809604843761E-01  8.915320101886E-01  9.022303943108E-01  9.130571590426E-01
  9.240138449511E-01  9.351020110905E-01  9.463232352236E-01  9.576791140463E-01
  9.691712634148E-01  9.808013185758E-01  9.925709343987E-01  1.004481785611E+00
  1.016535567039E+00  1.028733993843E+00  1.041078801769E+00  1.053571747391E+00
  1.066214608359E+00  1.079009183660E+00  1.091957293864E+00  1.105060781390E+00
  1.118321510767E+00  1.131741368896E+00  1.145322265323E+00  1.159066132506E+00
  1.172974926096E+00  1.187050625210E+00  1.201295232712E+00  1.215710775505E+00
  1.230299304811E+00  1.245062896469E+00  1.260003651226E+00  1.275123695041E+00
  1.290425179381E+00  1.305910281534E+00  1.321581204912E+00  1.337440179371E+00
  1.353489461524E+00  1.369731335062E+00  1.386168111083E+00  1.402802128416E+00
  1.419635753957E+00  1.436671383004E+00  1.453911439600E+00  1.471358376875E+00
  1.489014677398E+00  1.506882853527E+00  1.524965447769E+00  1.543265033142E+00
  1.561784213540E+00  1.580525624102E+00  1.599491931592E+00  1.618685834771E+00
  1.638110064788E+00  1.657767385566E+00  1.677660594192E+00  1.697792521323E+00
  1.718166031578E+00  1.738784023957E+00  1.759649432245E+00  1.780765225432E+00
  1.802134408137E+00  1.823760021035E+00  1.845645141287E+00  1.867792882983E+00
  1.890206397578E+00  1.912888874349E+00  1.935843540841E+00  1.959073663332E+00
  1.982582547292E+00  2.006373537859E+00  2.030450020313E+00  2.054815420557E+00
  2.079473205604E+00  2.104426884071E+00  2.129680006680E+00  2.155236166760E+00
  2.181099000761E+00  2.207272188770E+00  2.233759455036E+00  2.260564568496E+00
  2.287691343318E+00  2.315143639438E+00  2.342925363111E+00  2.371040467468E+00
  2.399492953078E+00  2.428286868515E+00  2.457426310937E+00  2.486915426668E+00
  2.516758411788E+00  2.546959512730E+00  2.577523026883E+00  2.608453303205E+00
  2.639754742844E+00  2.671431799758E+00  2.703488981355E+00  2.735930849131E+00
  2.768762019321E+00  2.801987163552E+00  2.835611009515E+00  2.869638341629E+00
  2.904074001729E+00  2.938922889750E+00  2.974189964427E+00  3.009880244000E+00
  3.045998806928E+00  3.082550792611E+00  3.119541402122E+00  3.156975898948E+00
  3.194859609735E+00  3.233197925052E+00  3.271996300152E+00  3.311260255754E+00
  3.350995378823E+00  3.391207323369E+00  3.431901811250E+00  3.473084632985E+00
  3.514761648580E+00  3.556938788363E+00  3.599622053824E+00  3.642817518470E+00
  3.686531328691E+00  3.730769704636E+00  3.775538941091E+00  3.820845408384E+00
  3.866695553285E+00  3.913095899924E+00  3.960053050723E+00  4.007573687332E+00
  4.055664571580E+00  4.104332546439E+00  4.153584536996E+00  4.203427551440E+00
  4.253868682058E+00  4.304915106242E+00  4.356574087517E+00  4.408852976567E+00
  4.461759212286E+00  4.515300322834E+00  4.569483926708E+00  4.624317733828E+00
  4.679809546634E+00  4.735967261194E+00  4.792798868328E+00  4.850312454748E+00
  4.908516204205E+00  4.967418398655E+00  5.027027419439E+00  5.087351748472E+00
  5.148399969454E+00  5.210180769088E+00  5.272702938317E+00  5.335975373576E+00
  5.400007078059E+00  5.464807162996E+00  5.530384848952E+00  5.596749467139E+00
  5.663910460745E+00  5.731877386274E+00  5.800659914909E+00  5.870267833888E+00
  5.940711047895E+00  6.011999580470E+00  6.084143575435E+00  6.157153298341E+00
  6.231039137921E+00  6.305811607576E+00  6.381481346867E+00  6.458059123029E+00
  6.535555832505E+00  6.613982502495E+00  6.693350292525E+00  6.773670496036E+00
  6.854954541988E+00  6.937213996492E+00  7.020460564450E+00  7.104706091223E+00
  7.189962564318E+00  7.276242115090E+00  7.363557020471E+00  7.451919704716E+00
  7.541342741173E+00  7.631838854067E+00  7.723420920316E+00  7.816101971360E+00
  7.909895195016E+00  8.004813937356E+00  8.100871704605E+00  8.198082165060E+00
  8.296459151040E+00  8.396016660853E+00  8.496768860783E+00  8.598730087113E+00
  8.701914848158E+00  8.806337826336E+00  8.912013880252E+00  9.018958046815E+00
  9.127185543377E+00  9.236711769897E+00  9.347552311136E+00  9.459722938870E+00
  9.573239614136E+00  9.688118489506E+00  9.804375911380E+00  9.922028422316E+00
  1.004109276338E+01  1.016158587654E+01  1.028352490706E+01  1.040692720595E+01
  1.053181033242E+01  1.065819205641E+01  1.078609036109E+01  1.091552344542E+01
  1.104650972676E+01  1.117906784348E+01  1.131321665761E+01  1.144897525750E+01
  1.158636296059E+01  1.172539931611E+01  1.186610410791E+01  1.200849735720E+01
  1.215259932549E+01  1.229843051740E+01  1.244601168360E+01  1.259536382381E+01
  1.274650818969E+01  1.289946628797E+01  1.305425988342E+01  1.321091100203E+01
  1.336944193405E+01  1.352987523726E+01  1.369223374011E+01  1.385654054499E+01
  1.402281903153E+01  1.419109285991E+01  1.436138597422E+01  1.453372260591E+01
  1.470812727719E+01  1.488462480451E+01  1.506324030217E+01  1.524399918579E+01
  1.542692717602E+01  1.561205030213E+01  1.579939490576E+01  1.598898764463E+01
  1.618085549636E+01  1.637502576232E+01  1.657152607147E+01  1.677038438433E+01
  1.697162899694E+01  1.717528854490E+01  1.738139200744E+01  1.758996871153E+01
  1.780104833607E+01  1.801466091610E+01  1.823083684709E+01  1.844960688926E+01
  1.867100217193E+01  1.889505419799E+01  1.912179484837E+01  1.935125638655E+01
  1.958347146319E+01  1.981847312075E+01  2.005629479820E+01  2.029697033577E+01
  2.054053397980E+01  2.078702038756E+01  2.103646463221E+01  2.128890220780E+01
  2.154436903429E+01  2.180290146270E+01  2.206453628026E+01  2.232931071562E+01
  2.259726244421E+01  2.286842959354E+01  2.314285074866E+01  2.342056495764E+01
  2.370161173713E+01  2.398603107798E+01  2.427386345092E+01  2.456514981233E+01
  2.485993161007E+01  2.515825078940E+01  2.546014979887E+01  2.576567159645E+01
  2.607485965561E+01  2.638775797148E+01  2.670441106714E+01  2.702486399994E+01
  2.734916236794E+01  2.767735231636E+01  2.800948054415E+01  2.834559431068E+01
  2.868574144241E+01  2.902997033972E+01  2.937832998380E+01  2.973086994360E+01
  3.008764038293E+01  3.044869206752E+01  3.081407637233E+01  3.118384528880E+01
  3.155805143227E+01  3.193674804945E+01  3.231998902605E+01  3.270782889436E+01
  3.310032284109E+01  3.349752671518E+01  3.389949703577E+01  3.430629100020E+01
  3.471796649220E+01  3.513458209010E+01  3.555619707519E+01  3.598287144009E+01
  3.641466589737E+01  3.685164188814E+01  3.729386159079E+01  3.774138792988E+01
  3.819428458504E+01  3.865261600006E+01  3.911644739206E+01  3.958584476077E+01
  4.006087489790E+01  4.054160539667E+01  4.102810466143E+01  4.152044191737E+01
  4.201868722038E+01  4.252291146702E+01  4.303318640463E+01  4.354958464148E+01
  4.407217965718E+01
</grid-data>
</grid>
<valence-charge total-charge="14" is-unscreening-charge="yes"
 rescaled-to-z-pseudo="no">
<radfunc>
<data npts="457">
  6.846557550684E-01  6.883101809595E-01  6.992371070439E-01  7.174757060176E-01
  7.442574880571E-01  7.784636048862E-01  8.221131845234E-01  8.721700901907E-01
  9.285479134607E-01  9.944183341958E-01  1.068825436754E+00  1.149891043438E+00
  1.248124739253E+00  1.351020919210E+00  1.454114407835E+00  1.573232876550E+00
  1.710884495596E+00  1.841832224229E+00  1.989575806907E+00  2.156279683128E+00
  2.344384612312E+00  2.512113764325E+00  2.696857119465E+00  2.900331630444E+00
  3.124418888595E+00  3.371177093095E+00  3.642852435459E+00  3.864423543894E+00
  4.102488302630E+00  4.358220370126E+00  4.632860524153E+00  4.927716172114E+00
  5.244159570243E+00  5.583624410579E+00  5.947600371904E+00  6.337625161006E+00
  6.755273494278E+00  7.202142388033E+00  7.517079414609E+00  7.846185063833E+00
  8.189921508647E+00  8.548738570009E+00  8.923068632933E+00  9.313320857426E+00
  9.719874624766E+00  1.014307216001E+01  1.058321027357E+01  1.104053116844E+01
  1.151521226548E+01  1.200735500784E+01  1.251697261684E+01  1.304397678729E+01
  1.358816332901E+01  1.414919678551E+01  1.472659408959E+01  1.531970735084E+01
  1.592770591008E+01  1.654955784381E+01  1.718401115508E+01  1.782957494761E+01
  1.848450094688E+01  1.914676580369E+01  1.981405469253E+01  2.048374679628E+01
  2.115290334884E+01  2.181825898457E+01  2.247621721503E+01  2.280120786109E+01
  2.312285091406E+01  2.344060487146E+01  2.375390873739E+01  2.406218261452E+01
  2.436482842562E+01  2.466123077178E+01  2.495075793386E+01  2.523276302346E+01
  2.550658528921E+01  2.577155158332E+01  2.602697799276E+01  2.627217163870E+01
  2.650643264644E+01  2.672905628738E+01  2.693933529307E+01  2.713656234001E+01
  2.732003270255E+01  2.748904706928E+01  2.764291451693E+01  2.778095563356E+01
  2.790250578112E+01  2.800691848519E+01  2.809356893777E+01  2.816185759664E+01
  2.821121386251E+01  2.824109981337E+01  2.825101397251E+01  2.824049508524E+01
  2.820912587681E+01  2.815653676206E+01  2.808240947585E+01  2.798648059126E+01
  2.786854489154E+01  2.772845856041E+01  2.756614215473E+01  2.738158332300E+01
  2.717483923314E+01  2.694603867350E+01  2.669538379177E+01  2.642315143796E+01
  2.612969407936E+01  2.581544025793E+01  2.548089456335E+01  2.512663709862E+01
  2.475332241886E+01  2.436167792857E+01  2.395250172773E+01  2.352665990201E+01
  2.308508325874E+01  2.262876351586E+01  2.215874895759E+01  2.167613957706E+01
  2.118208173241E+01  2.067776234981E+01  2.016440271265E+01  1.964325188282E+01
  1.911557980534E+01  1.858267015332E+01  1.804581297469E+01  1.750629720653E+01
  1.696540312619E+01  1.642439481089E+01  1.588451267944E+01  1.534696619024E+01
  1.481292676994E+01  1.428352104557E+01  1.375982445112E+01  1.324285527619E+01
  1.273356922053E+01  1.223285451287E+01  1.174152764698E+01  1.126032978119E+01
  1.078992384017E+01  1.033089235018E+01  9.883736030674E+00  9.448873156452E+00
  9.026639696100E+00  8.617290223476E+00  8.220999590519E+00  7.837865341190E+00
  7.467912242209E+00  7.111103359372E+00  6.767354986771E+00  6.436542720189E+00
  6.118503106995E+00  5.813038754334E+00  5.519922224436E+00  5.238900094964E+00
  4.969696950331E+00  4.712019289299E+00  4.465559318299E+00  4.229998598344E+00
  4.005011513602E+00  3.790268528278E+00  3.585439197721E+00  3.390194899225E+00
  3.204211248150E+00  3.027170166035E+00  2.858761569506E+00  2.698684652212E+00
  2.546647893993E+00  2.402365307665E+00  2.265550507740E+00  2.135917792689E+00
  2.013183049184E+00  1.897064632496E+00  1.787284171061E+00  1.683567296862E+00
  1.585644303550E+00  1.493250734533E+00  1.406127903416E+00  1.324023349441E+00
  1.246691230672E+00  1.173892657836E+00  1.105395971838E+00  1.040976968017E+00
  9.804190703078E-01  9.235134584508E-01  8.700591514611E-01  8.198630505080E-01
  7.727399443628E-01  7.285124805111E-01  6.870111049763E-01  6.480739738233E-01
  6.115468392291E-01  5.772829129104E-01  5.451427095933E-01  5.149938730940E-01
  4.867109874607E-01  4.601753754957E-01  4.352748868470E-01  4.119036777194E-01
  3.899619841173E-01  3.693558903902E-01  3.499970947123E-01  3.318026729853E-01
  3.146948425187E-01  2.986007267072E-01  2.834521217945E-01  2.691852666896E-01
  2.557406166845E-01  2.430626218091E-01  2.310995104583E-01  2.198030788284E-01
  2.091284866108E-01  1.990340593121E-01  1.894810974921E-01  1.804336931470E-01
  1.718585534012E-01  1.637248316174E-01  1.560039659835E-01  1.486695255884E-01
  1.416970639618E-01  1.350639800093E-01  1.287493862494E-01  1.227339842220E-01
  1.169999469183E-01  1.115308080536E-01  1.063113579912E-01  1.013275461026E-01
  9.656638934206E-02  9.201588679663E-02  8.766493996986E-02  8.350327854770E-02
  7.952139139348E-02  7.571046251679E-02  7.206231176123E-02  6.856933995820E-02
  6.522447829698E-02  6.202114166645E-02  5.895318572896E-02  5.601486749414E-02
  5.320080916718E-02  5.050596505469E-02  4.792559131922E-02  4.545521838272E-02
  4.309062578800E-02  4.082781933663E-02  3.866301033110E-02  3.659259675824E-02
  3.461314626052E-02  3.272138075085E-02  3.091416253604E-02  2.918848182295E-02
  2.754144549030E-02  2.597026701818E-02  2.447225747541E-02  2.304481747355E-02
  2.168543000411E-02  2.039165408336E-02  1.916111913586E-02  1.799152005508E-02
  1.688061288489E-02  1.582621107152E-02  1.482618223819E-02  1.387844545130E-02
  1.298096891617E-02  1.213176809056E-02  1.132890416836E-02  1.057048290274E-02
  9.854653735659E-03  9.179609200999E-03  8.543584568424E-03  7.944857695136E-03
  7.381749052440E-03  6.852621894290E-03  6.355882535365E-03  5.889980707055E-03
  5.453409960931E-03  5.044708090970E-03  4.662457547820E-03  4.305285820873E-03
  3.971865766618E-03  3.660915864738E-03  3.371200386504E-03  3.101529463183E-03
  2.850759045322E-03  2.617790746779E-03  2.401571570243E-03  2.201093513615E-03
  2.015393059005E-03  1.843550548175E-03  1.684689450042E-03  1.537975527345E-03
  1.402615910723E-03  1.277858089362E-03  1.162988827936E-03  1.057333019977E-03
  9.602524878717E-04  8.711447396728E-04  7.894416926297E-04  7.146083729676E-04
  6.461416009373E-04  5.835686695511E-04  5.264460247441E-04  4.743579539810E-04
  4.269152895733E-04  3.837541322066E-04  3.445345994262E-04  3.089396030843E-04
  2.766736590534E-04  2.474617318450E-04  2.210481161629E-04  1.971953568645E-04
  1.756832083128E-04  1.563076336680E-04  1.388798442998E-04  1.232253791928E-04
  1.091832239673E-04  9.660496893559E-05  8.535400546511E-05  7.530475980490E-05
  6.634196345684E-05  5.835995912233E-05  5.126204122823E-05  4.495983002492E-05
  3.937267824945E-05  3.442710935476E-05  3.005628631730E-05  2.619951004810E-05
  2.280174644438E-05  1.981318112856E-05  1.718880092908E-05  1.488800116140E-05
  1.287421776983E-05  1.111458338962E-05  9.579606387292E-06  8.242871933712E-06
  7.080764161906E-06  6.072208459061E-06  5.198432941672E-06  4.442748164037E-06
  3.790344114306E-06  3.228103559170E-06  2.744430808492E-06  2.329094984629E-06
  1.973086898140E-06  1.668488651709E-06  1.408355117453E-06  1.186606458925E-06
  9.979308979102E-07  8.376969570787E-07  7.018744424245E-07  5.869634638214E-07
  4.899308273150E-07  4.081531690826E-07  3.393662382334E-07  2.816197714483E-07
  2.332374189416E-07  1.927813711328E-07  1.590206567012E-07  1.309047940226E-07
  1.075360891799E-07  5.412380446284E-08  4.397702673189E-08  3.565071176193E-08
  2.883402599752E-08  2.326625779449E-08  1.872929120659E-08  1.504107794130E-08
  1.205003930211E-08  9.630275992799E-09  7.677476130994E-09  6.105429256460E-09
  4.843064445049E-09  3.831940425045E-09  3.024124408880E-09  2.380404265633E-09
  1.868785734328E-09  1.463232680110E-09  1.142613988833E-09  8.898256421768E-10
  6.910608743956E-10  5.352051393557E-10  4.133359657041E-10  3.183106983763E-10
  2.444276622973E-10  1.871484816107E-10  1.428711841256E-10  1.087453515772E-10
  8.252197407965E-11  6.243186105585E-11  4.708747717842E-11  3.540393394123E-11
  2.653559625777E-11  1.982537745538E-11  1.476431149586E-11  1.095942250979E-11
  8.108271283387E-12  5.978857055875E-12  4.393800291768E-12  3.217936109921E-12
  2.348615758543E-12  1.708150890342E-12  1.237947498625E-12  8.939675352633E-13
  6.432300872923E-13  4.611236043397E-13  3.293486107847E-13  2.343487457197E-13
  1.661186293346E-13  1.173014280282E-13  8.250829493243E-14  5.780709244657E-14
  4.033977160922E-14  2.803715090243E-14  1.940714005917E-14  1.337812470271E-14
  9.183612223025E-15  6.277615711171E-15  4.272841991295E-15  2.895726975898E-15
  1.953864961825E-15  1.312516697366E-15  8.777390382501E-16  5.843229185590E-16
  3.872074586286E-16  2.553958672893E-16  1.676637410956E-16  1.095456304284E-16
  7.122898751639E-17  4.608920032610E-17  2.967541793265E-17  1.901183584199E-17
  1.211866464132E-17  7.685331821941E-18  4.848651259047E-18  3.043005554452E-18
  1.899681043319E-18  1.179579253280E-18  7.284740161303E-19  4.474177216285E-19
  2.732724212497E-19  1.659712701246E-19  1.002294051014E-19  6.018008362553E-20
  3.592325955668E-20  2.131736642544E-20  1.257463553740E-20  7.372760055758E-21
  4.296413139579E-21  2.488233941730E-21  1.432033519264E-21  8.189530240001E-22
  4.653456454161E-22  0.000000000000E+00  0.000000000000E+00  0.000000000000E+00
  0.000000000000E+00
</data>
</radfunc>
</valence-charge>
<pseudocore-charge matching-radius="0.468154568481"
 number-of-continuous-derivatives="4">
<annotation model-charge-form="Teter function with specified parameters" />
<radfunc>
<data npts="290">
  1.215563351624E+02  1.215389997687E+02  1.214871860739E+02  1.214007684639E+02
  1.212740227859E+02  1.211124012135E+02  1.209065808449E+02  1.206711246481E+02
  1.204066673257E+02  1.200986531450E+02  1.197519651142E+02  1.193757359235E+02
  1.189218711653E+02  1.184488256277E+02  1.179772541054E+02  1.174352948087E+02
  1.168128277304E+02  1.162243902370E+02  1.155647277036E+02  1.148256912571E+02
  1.139983263677E+02  1.132662786288E+02  1.124660150606E+02  1.115917360340E+02
  1.106372655865E+02  1.095960527559E+02  1.084611800048E+02  1.075442020859E+02
  1.065672735647E+02  1.055271160188E+02  1.044203706452E+02  1.032436134890E+02
  1.019933742076E+02  1.006661588258E+02  9.925847695692E+01  9.776687399057E+01
  9.618796875680E+01  9.451849718013E+01  9.335366363400E+01  9.214633265145E+01
  9.089569197000E+01  8.960099080698E+01  8.826154952710E+01  8.687677000294E+01
  8.544614667200E+01  8.396927828584E+01  8.244588033778E+01  8.087579814425E+01
  7.925902054227E+01  7.759569415097E+01  7.588613812825E+01  7.413085933502E+01
  7.233056779858E+01  7.048619234333E+01  6.859889623199E+01  6.667009263280E+01
  6.470145969888E+01  6.269495501463E+01  6.065282913175E+01  5.857763788388E+01
  5.647225313525E+01  5.433987158556E+01  5.218402122203E+01  5.000856498021E+01
  4.781770115119E+01  4.561596005330E+01  4.340819647594E+01  4.230365918477E+01
  4.119957740126E+01  4.009664291124E+01  3.899556452076E+01  3.789706719329E+01
  3.680189108879E+01  3.571079050203E+01  3.462453269791E+01  3.354389664177E+01
  3.246967162314E+01  3.140265577198E+01  3.034365446685E+01  2.929347863506E+01
  2.825294294552E+01  2.722286389569E+01  2.620405779486E+01  2.519733864656E+01
  2.420351593402E+01  2.322339231344E+01  2.225776122065E+01  2.130740439792E+01
  2.037308934870E+01  1.945556672896E+01  1.855556768525E+01  1.767380115043E+01
  1.681095110932E+01  1.596767384758E+01  1.514459519845E+01  1.434230780271E+01
  1.356136839882E+01  1.280229516075E+01  1.206556510227E+01  1.135161156716E+01
  1.066082182567E+01  9.993534798166E+00  9.350038927397E+00  8.730570221060E+00
  8.135310486636E+00  7.564385780268E+00  7.017865091179E+00  6.495759282630E+00
  5.998020309526E+00  5.524540731724E+00  5.075153540676E+00  4.649632315321E+00
  4.247691721118E+00  3.868988363752E+00  3.513122006338E+00  3.179637156000E+00
  2.868025022343E+00  2.577725846765E+00  2.308131597711E+00  2.058589022838E+00
  1.828403044820E+00  1.616840483064E+00  1.423134079087E+00  1.246486798783E+00
  1.086076380265E+00  9.410600916206E-01  8.105796587129E-01  6.937663192850E-01
  5.897459561151E-01  4.976442589452E-01  4.165918624512E-01  3.457294057296E-01
  2.842124577369E-01  2.312162529055E-01  1.859401818503E-01  1.476119837270E-01
  1.154915894458E-01  8.887456860750E-02  6.709513770857E-02  4.952869283558E-02
  3.559383668619E-02  2.475387723097E-02  1.651778356357E-02  1.044059333617E-02
  6.123275477675E-03  3.212061452468E-03  1.397267922108E-03  4.116430877023E-04
  2.827796923362E-05  5.813216580914E-05  3.472309843991E-04  7.735969805281E-04
  1.243983697786E-03  1.690482527863E-03  2.067074981320E-03  2.346202151533E-03
  2.515420716394E-03  2.574210464022E-03  2.530992127958E-03  2.400406423474E-03
  2.200895810184E-03  1.952619955398E-03  1.675724486804E-03  1.388970801564E-03
  1.108722877702E-03  8.482756674146E-04  6.174991946689E-04  4.227633619236E-04
  2.671010784329E-04  1.505619724694E-04  7.070587037050E-05  2.318453872086E-05
  2.361895344661E-06  1.926877435305E-06  1.545916308044E-05  3.691561065234E-05
  6.101414364946E-05  8.350132538978E-05  1.012994530047E-04  1.125380607185E-04
  1.164826985442E-04  1.133802577739E-04  1.042445735240E-04  9.060831420255E-05
  7.426719979904E-05  5.704048163369E-05  4.056764218702E-05  2.615586242656E-05
  1.468650032315E-05  6.582243324714E-06  1.830369802509E-06  5.226546967069E-08
  6.054729543677E-07  2.702435025294E-06  5.529863398534E-06  8.354257357046E-06
  1.060223942134E-05  1.190862587241E-05  1.212994267711E-05  1.132581252706E-05
  9.714679443976E-06  7.613207170175E-06  5.370056899419E-06  3.304502742996E-06
  1.658594748956E-06  5.686602588091E-07  5.834362896285E-08  0.000000000000E+00
  0.000000000000E+00  0.000000000000E+00  0.000000000000E+00  0.000000000000E+00
  0.000000000000E+00  0.000000000000E+00  0.000000000000E+00  0.000000000000E+00
  0.000000000000E+00  0.000000000000E+00  0.000000000000E+00  0.000000000000E+00
  0.000000000000E+00  0.000000000000E+00  0.000000000000E+00  0.000000000000E+00
  0.000000000000E+00  0.000000000000E+00  0.000000000000E+00  0.000000000000E+00
  0.000000000000E+00  0.000000000000E+00  0.000000000000E+00  0.000000000000E+00
  0.000000000000E+00  0.000000000000E+00  0.000000000000E+00  0.000000000000E+00
  0.000000000000E+00  0.000000000000E+00  0.000000000000E+00  0.000000000000E+00
  0.000000000000E+00  0.000000000000E+00  0.000000000000E+00  0.000000000000E+00
  0.000000000000E+00  0.000000000000E+00  0.000000000000E+00  0.000000000000E+00
  0.000000000000E+00  0.000000000000E+00  0.000000000000E+00  0.000000000000E+00
  0.000000000000E+00  0.000000000000E+00  0.000000000000E+00  0.000000000000E+00
  0.000000000000E+00  0.000000000000E+00  0.000000000000E+00  0.000000000000E+00
  0.000000000000E+00  0.000000000000E+00  0.000000000000E+00  0.000000000000E+00
  0.000000000000E+00  0.000000000000E+00  0.000000000000E+00  0.000000000000E+00
  0.000000000000E+00  0.000000000000E+00  0.000000000000E+00  0.000000000000E+00
  0.000000000000E+00  0.000000000000E+00  0.000000000000E+00  0.000000000000E+00
  0.000000000000E+00  0.000000000000E+00  0.000000000000E+00  0.000000000000E+00
  0.000000000000E+00  0.000000000000E+00  0.000000000000E+00  0.000000000000E+00
  0.000000000000E+00  0.000000000000E+00  0.000000000000E+00  0.000000000000E+00
  0.000000000000E+00  0.000000000000E+00
</data>
</radfunc>
</pseudocore-charge>
<semilocal-potentials set="lj">
<slps n="3" l="s" j="0.5" rc="1.10506078139" eref="-2.71049375095">
<radfunc>
<data npts="290">
  2.990356109697E+01  2.987549433188E+01  2.979233398290E+01  2.965414393864E+01
  2.945243516987E+01  2.919685471752E+01  2.887399063698E+01  2.850817390435E+01
  2.810172943870E+01  2.763414823270E+01  2.711518570552E+01  2.656059265510E+01
  2.590316585428E+01  2.523110193446E+01  2.457410695631E+01  2.383456703852E+01
  2.300498034393E+01  2.223955033828E+01  2.140241019667E+01  2.048982920903E+01
  1.949855320189E+01  1.864709126149E+01  1.774261145254E+01  1.678454553130E+01
  1.577278463673E+01  1.470773885466E+01  1.359039267403E+01  1.271900343248E+01
  1.182000742307E+01  1.089454313197E+01  9.943970622133E+00  8.969873381747E+00
  7.974057206753E+00  6.958545944284E+00  5.925574002299E+00  4.877575620045E+00
  3.817170991133E+00  2.747149432036E+00  2.029904804557E+00  1.310592872376E+00
  5.901391720516E-01 -1.305117515404E-01 -8.503996443838E-01 -1.568551901818E+00
 -2.283986950258E+00 -2.995717615670E+00 -3.702754442656E+00 -4.404108928986E+00
 -5.098796642144E+00 -5.785840186778E+00 -6.464271994956E+00 -7.133136914697E+00
 -7.791494576325E+00 -8.438421520742E+00 -9.073013078592E+00 -9.694384994476E+00
 -1.030167479573E+01 -1.089404291066E+01 -1.147067354669E+01 -1.203077534391E+01
 -1.257358182494E+01 -1.309835166657E+01 -1.360436882308E+01 -1.409094253510E+01
 -1.455740726116E+01 -1.500312257189E+01 -1.542747304855E+01 -1.563145097969E+01
 -1.582986822926E+01 -1.602265489502E+01 -1.620974264615E+01 -1.639106473247E+01
 -1.656655599660E+01 -1.673615288957E+01 -1.689979349003E+01 -1.705741752742E+01
 -1.720896640929E+01 -1.735438325303E+01 -1.749361292227E+01 -1.762660206799E+01
 -1.775329917469E+01 -1.787365461162E+01 -1.798762068921E+01 -1.809515172074E+01
 -1.819620408942E+01 -1.829073632064E+01 -1.837870915957E+01 -1.846008565401E+01
 -1.853483124231E+01 -1.860291384626E+01 -1.866430396899E+01 -1.871897479736E+01
 -1.876690230910E+01 -1.880806538417E+01 -1.884244592043E+01 -1.887002895341E+01
 -1.889080278019E+01 -1.890475908726E+01 -1.891189308270E+01 -1.891220363278E+01
 -1.890569340343E+01 -1.889236900725E+01 -1.887224115690E+01 -1.884532482610E+01
 -1.881163941955E+01 -1.877120895400E+01 -1.872406225236E+01 -1.867023315404E+01
 -1.860976074457E+01 -1.854268960854E+01 -1.846907011032E+01 -1.838895870759E+01
 -1.830241830361E+01 -1.820951864452E+01 -1.811033676868E+01 -1.800495751568E+01
 -1.789347410313E+01 -1.777598877957E+01 -1.765261356228E+01 -1.752347106858E+01
 -1.738869544908E+01 -1.724843343073E+01 -1.710284547634E+01 -1.695210706615E+01
 -1.679641010442E+01 -1.663596445178E+01 -1.647099958025E+01 -1.630176634352E+01
 -1.612853884988E+01 -1.595161641861E+01 -1.577132559334E+01 -1.558802217718E+01
 -1.540209324465E+01 -1.521395907467E+01 -1.502407493701E+01 -1.483293265190E+01
 -1.464106182958E+01 -1.444903068306E+01 -1.425744629455E+01 -1.406695420414E+01
 -1.387823717862E+01 -1.369201301076E+01 -1.350903119423E+01 -1.333006831897E+01
 -1.315592206817E+01 -1.298740326412E+01 -1.282532605621E+01 -1.267050445682E+01
 -1.252061682282E+01 -1.237226824728E+01 -1.222563767033E+01 -1.208070389844E+01
 -1.193745138663E+01 -1.179586570747E+01 -1.165593008363E+01 -1.151762821685E+01