Mg    ONCVPSP-3.3.0  r_core=   2.31813   2.10714
12.0000      2.0000      180429    zatom,zion,pspd
8 -116133   1     4   400     0    pspcod,pspxc,lmax,lloc,mmax,r2well
3.99000000  4.00000000  0.00000000    rchrg fchrg qchrg
2     3     0     0    nproj
3     1           extension_switch
4     0     0    nprojso
0                         6.8382152514216D-01  6.2744450279613D+00
1  0.0000000000000D+00  5.4023036044626D-11 -1.8502060994408D-11
2  1.0000000000000D-02 -2.5531988157768D-03  2.6312325521777D-02
3  2.0000000000000D-02 -5.0933904361176D-03  5.2609666038209D-02
4  3.0000000000000D-02 -7.6077322859773D-03  7.8877088779495D-02
5  4.0000000000000D-02 -1.0083709393643D-02  1.0509976492330D-01
6  5.0000000000000D-02 -1.2509294112582D-02  1.3126302026417D-01
7  6.0000000000000D-02 -1.4873100985962D-02  1.5735238433097D-01
8  7.0000000000000D-02 -1.7164535198601D-02  1.8335363745684D-01
9  8.0000000000000D-02 -1.9373933115063D-02  2.0925285532478D-01
10  9.0000000000000D-02 -2.1492693469460D-02  2.3503645053483D-01
11  1.0000000000000D-01 -2.3513397851376D-02  2.6069121076564D-01
12  1.1000000000000D-01 -2.5429919222887D-02  2.8620433313452D-01
13  1.2000000000000D-01 -2.7237517302918D-02  3.1156345439442D-01
14  1.3000000000000D-01 -2.8932919766556D-02  3.3675667664456D-01
15  1.4000000000000D-01 -3.0514388327428D-02  3.6177258827229D-01
16  1.5000000000000D-01 -3.1981768899987D-02  3.8660027988811D-01
17  1.6000000000000D-01 -3.3336525174295D-02  4.1122935506145D-01
18  1.7000000000000D-01 -3.4581755077966D-02  4.3564993571381D-01
19  1.8000000000000D-01 -3.5722189746710D-02  4.5985266207516D-01
20  1.9000000000000D-01 -3.6764174775585D-02  4.8382868716088D-01
21  2.0000000000000D-01 -3.7715633676356D-02  5.0756966577852D-01
22  2.1000000000000D-01 -3.8586013620782D-02  5.3106773812547D-01
23  2.2000000000000D-01 -3.9386213704419D-02  5.5431550809115D-01
24  2.3000000000000D-01 -4.0128496118888D-02  5.7730601642857D-01
25  2.4000000000000D-01 -4.0826380771675D-02  6.0003270901078D-01
26  2.5000000000000D-01 -4.1494524039975D-02  6.2248940043693D-01
27  2.6000000000000D-01 -4.2148582487596D-02  6.4467023329980D-01
28  2.7000000000000D-01 -4.2805062510601D-02  6.6656963347181D-01
29  2.8000000000000D-01 -4.3481157006764D-02  6.8818226180875D-01
30  2.9000000000000D-01 -4.4194570285117D-02  7.0950296271002D-01
31  3.0000000000000D-01 -4.4963332543868D-02  7.3052671000965D-01
32  3.1000000000000D-01 -4.5805605346915D-02  7.5124855070515D-01
33  3.2000000000000D-01 -4.6739479619718D-02  7.7166354705877D-01
34  3.3000000000000D-01 -4.7782767764562D-02  7.9176671763003D-01
35  3.4000000000000D-01 -4.8952791561497D-02  8.1155297781730D-01
36  3.5000000000000D-01 -5.0266167574701D-02  8.3101708050091D-01
37  3.6000000000000D-01 -5.1738591823786D-02  8.5015355738969D-01
38  3.7000000000000D-01 -5.3384625505196D-02  8.6895666167723D-01
39  3.8000000000000D-01 -5.5217483560679D-02  8.8742031261342D-01
40  3.9000000000000D-01 -5.7248827886532D-02  9.0553804259091D-01
41  4.0000000000000D-01 -5.9488566960300D-02  9.2330294733482D-01
42  4.1000000000000D-01 -6.1944663629541D-02  9.4070763976735D-01
43  4.2000000000000D-01 -6.4622952761543D-02  9.5774420809759D-01
44  4.3000000000000D-01 -6.7526970392798D-02  9.7440417865993D-01
45  4.4000000000000D-01 -7.0657795943745D-02  9.9067848399281D-01
46  4.5000000000000D-01 -7.4013908977939D-02  1.0065574366132D+00
47  4.6000000000000D-01 -7.7591061886102D-02  1.0220307089017D+00
48  4.7000000000000D-01 -8.1382169765264D-02  1.0370873194675D+00
49  4.8000000000000D-01 -8.5377218642352D-02  1.0517156263136D+00
50  4.9000000000000D-01 -8.9563193060670D-02  1.0659033270721D+00
51  5.0000000000000D-01 -9.3924023908315D-02  1.0796374665186D+00
52  5.1000000000000D-01 -9.8440557220497D-02  1.0929044515239D+00
53  5.2000000000000D-01 -1.0309054453408D-01  1.1056900735321D+00
54  5.3000000000000D-01 -1.0784865521385D-01  1.1179795385990D+00
55  5.4000000000000D-01 -1.1268651100777D-01  1.1297575049537D+00
56  5.5000000000000D-01 -1.1757274292272D-01  1.1410081279880D+00
57  5.6000000000000D-01 -1.2247307034673D-01  1.1517151125068D+00
58  5.7000000000000D-01 -1.2735040217718D-01  1.1618617720112D+00
59  5.8000000000000D-01 -1.3216495955066D-01  1.1714310947201D+00
60  5.9000000000000D-01 -1.3687441960934D-01  1.1804058159728D+00
61  6.0000000000000D-01 -1.4143407958191D-01  1.1887684965928D+00
62  6.1000000000000D-01 -1.4579704030789D-01  1.1965016067350D+00
63  6.2000000000000D-01 -1.4991440819054D-01  1.2035876146807D+00
64  6.3000000000000D-01 -1.5373551443056D-01  1.2100090799920D+00
65  6.4000000000000D-01 -1.5720815026882D-01  1.2157487503868D+00
66  6.5000000000000D-01 -1.6027881685438D-01  1.2207896616537D+00
67  6.6000000000000D-01 -1.6289298825457D-01  1.2251152398799D+00
68  6.7000000000000D-01 -1.6499538603828D-01  1.2287094052371D+00
69  6.8000000000000D-01 -1.6653026379260D-01  1.2315566765338D+00
70  6.9000000000000D-01 -1.6744169987781D-01  1.2336422757246D+00
71  7.0000000000000D-01 -1.6767389668707D-01  1.2349522315463D+00
72  7.1000000000000D-01 -1.6717148465578D-01  1.2354734814409D+00
73  7.2000000000000D-01 -1.6587982926172D-01  1.2351939709213D+00
74  7.3000000000000D-01 -1.6374533927227D-01  1.2341027495398D+00
75  7.4000000000000D-01 -1.6071577452785D-01  1.2321900626287D+00
76  7.5000000000000D-01 -1.5674055160299D-01  1.2294474379995D+00
77  7.6000000000000D-01 -1.5177104575753D-01  1.2258677668147D+00
78  7.7000000000000D-01 -1.4576088767991D-01  1.2214453778745D+00
79  7.8000000000000D-01 -1.3866625363306D-01  1.2161761046052D+00
80  7.9000000000000D-01 -1.3044614773951D-01  1.2100573440796D+00
81  8.0000000000000D-01 -1.2106267528658D-01  1.2030881074538D+00
82  8.1000000000000D-01 -1.1048130609327D-01  1.1952690612696D+00
83  8.2000000000000D-01 -9.8671127157691D-02  1.1866025591333D+00
84  8.3000000000000D-01 -8.5605083996128D-02  1.1770926633613D+00
85  8.4000000000000D-01 -7.1260210291110D-02  1.1667451562590D+00
86  8.5000000000000D-01 -5.5617845685332D-02  1.1555675407868D+00
87  8.6000000000000D-01 -3.8663841788956D-02  1.1435690304567D+00
88  8.7000000000000D-01 -2.0388756708784D-02  1.1307605283988D+00
89  8.8000000000000D-01 -7.8803865757299D-04  1.1171545956360D+00
90  8.9000000000000D-01  2.0137800542079D-02  1.1027654087081D+00
91  9.0000000000000D-01  4.2383020982921D-02  1.0876087068921D+00
92  9.1000000000000D-01  6.5936497885961D-02  1.0717017293729D+00
93  9.2000000000000D-01  9.0781570893214D-02  1.0550631428298D+00
94  9.3000000000000D-01  1.1689589756610D-01  1.0377129600131D+00
95  9.4000000000000D-01  1.4425130895154D-01  1.0196724499953D+00
96  9.5000000000000D-01  1.7281366481840D-01  1.0009640408936D+00
97  9.6000000000000D-01  2.0254270591367D-01  9.8161121596709D-01
98  9.7000000000000D-01  2.3339190034339D-01  9.6163840409945D-01
99  9.8000000000000D-01  2.6530828048564D-01  9.4107086562477D-01
100  9.9000000000000D-01  2.9823226575551D-01  9.1993457440242D-01
101  1.0000000000000D+00  3.3209751220215D-01  8.9825611162806D-01
102  1.0100000000000D+00  3.6683053411313D-01  8.7606248973804D-01
103  1.0200000000000D+00  4.0235152057072D-01  8.5338138967936D-01
104  1.0300000000000D+00  4.3857624250772D-01  8.3024170989593D-01
105  1.0400000000000D+00  4.7541762519528D-01  8.0667390636408D-01
106  1.0500000000000D+00  5.1278595052236D-01  7.8270982622850D-01
107  1.0600000000000D+00  5.5058924122937D-01  7.5838260364480D-01
108  1.0700000000000D+00  5.8873360205990D-01  7.3372653542978D-01
109  1.0800000000000D+00  6.2712357278251D-01  7.0877695799016D-01
110  1.0900000000000D+00  6.6566247903008D-01  6.8357012124991D-01
111  1.1000000000000D+00  7.0425278303034D-01  6.5814306124323D-01
112  1.1100000000000D+00  7.4279643240286D-01  6.3253347163697D-01
113  1.1200000000000D+00  7.8119520571729D-01  6.0677957464054D-01
114  1.1300000000000D+00  8.1935105352951D-01  5.8091999176896D-01
115  1.1400000000000D+00  8.5716643365051D-01  5.5499361493213D-01
116  1.1500000000000D+00  8.9454463942865D-01  5.2903947832688D-01
117  1.1600000000000D+00  9.3139011988494D-01  5.0309663161086D-01
118  1.1700000000000D+00  9.6760879058447D-01  4.7720401483387D-01
119  1.1800000000000D+00  1.0031083341934D+00  4.5140033559625D-01
120  1.1900000000000D+00  1.0377984897110D+00  4.2572394889941D-01
121  1.2000000000000D+00  1.0715913294628D+00  4.0021274013722D-01
122  1.2100000000000D+00  1.1044015230033D+00  3.7490401166072D-01
123  1.2200000000000D+00  1.1361465871358D+00  3.4983437333654D-01
124  1.2300000000000D+00  1.1667471213566D+00  3.2503963749335D-01
125  1.2400000000000D+00  1.1961270281234D+00  3.0055471862244D-01
126  1.2500000000000D+00  1.2242137174198D+00  2.7641353817771D-01
127  1.2600000000000D+00  1.2509382951695D+00  2.5264893479505D-01
128  1.2700000000000D+00  1.2762357352059D+00  2.2929258020274D-01
129  1.2800000000000D+00  1.3000450345717D+00  2.0637490107414D-01
130  1.2900000000000D+00  1.3223093519962D+00  1.8392500704940D-01
131  1.3000000000000D+00  1.3429761296311D+00  1.6197062508305D-01
132  1.3100000000000D+00  1.3619971981634D+00  1.4053804026571D-01
133  1.3200000000000D+00  1.3793288655307D+00  1.1965204323359D-01
134  1.3300000000000D+00  1.3949319897900D+00  9.9335884193163D-02
135  1.3400000000000D+00  1.4087720366352D+00  7.9611233603854D-02
136  1.3500000000000D+00  1.4208191223126D+00  6.0498149493573D-02
137  1.3600000000000D+00  1.4310480430470D+00  4.2015051289308D-02
138  1.3700000000000D+00  1.4394382918474D+00  2.4178700107508D-02
139  1.3800000000000D+00  1.4459740642308D+00  7.0041852799782D-03
140  1.3900000000000D+00  1.4506442543486D+00 -9.4950831168893D-03
141  1.4000000000000D+00  1.4534424430538D+00 -2.5307375941800D-02
142  1.4100000000000D+00  1.4543668800707D+00 -4.0422641325976D-02
143  1.4200000000000D+00  1.4534204619951D+00 -5.4832495963609D-02
144  1.4300000000000D+00  1.4506107085422D+00 -6.8530211871323D-02
145  1.4400000000000D+00  1.4459497389332D+00 -8.1510699146107D-02
146  1.4500000000000D+00  1.4394542510401D+00 -9.3770485216232D-02
147  1.4600000000000D+00  1.4311455047821D+00 -1.0530769131755D-01
148  1.4700000000000D+00  1.4210493123123D+00 -1.1612200674020D-01
149  1.4800000000000D+00  1.4091960361726D+00 -1.2621466164053D-01
150  1.4900000000000D+00  1.3956205961043D+00 -1.3558839898502D-01
151  1.5000000000000D+00  1.3803624866121D+00 -1.4424744650952D-01
152  1.5100000000000D+00  1.3634658014810D+00 -1.5219748896373D-01
153  1.5200000000000D+00  1.3449792690930D+00 -1.5944564177418D-01
154  1.5300000000000D+00  1.3249562893462D+00 -1.6600042577804D-01
155  1.5400000000000D+00  1.3034549754238D+00 -1.7187174421888D-01
156  1.5500000000000D+00  1.2805381884682D+00 -1.7707086119068D-01
157  1.5600000000000D+00  1.2562735636325D+00 -1.8161038207376D-01
158  1.5700000000000D+00  1.2307335154647D+00 -1.8550423510465D-01
159  1.5800000000000D+00  1.2039952153999D+00 -1.8876765334950D-01
160  1.5900000000000D+00  1.1761405284813D+00 -1.9141715632679D-01
161  1.6000000000000D+00  1.1472559005928D+00 -1.9347052921036D-01
162  1.6100000000000D+00  1.1174321786331D+00 -1.9494679863918D-01
163  1.6200000000000D+00  1.0867643624568D+00 -1.9586620252383D-01
164  1.6300000000000D+00  1.0553512603788D+00 -1.9625015173672D-01
165  1.6400000000000D+00  1.0232950665883D+00 -1.9612118233348D-01
166  1.6500000000000D+00  9.9070081642095D-01 -1.9550289368559D-01
167  1.6600000000000D+00  9.5767576754920D-01 -1.9441987487970D-01
168  1.6700000000000D+00  9.2432864724674D-01 -1.9289761105408D-01
169  1.6800000000000D+00  8.9076884416179D-01 -1.9096237773372D-01
170  1.6900000000000D+00  8.5710548120772D-01 -1.8864111131363D-01
171  1.7000000000000D+00  8.2344646315352D-01 -1.8596126954854D-01
172  1.7100000000000D+00  7.8989745321911D-01 -1.8295066874976D-01
173  1.7200000000000D+00  7.5656086077116D-01 -1.7963731512250D-01
174  1.7300000000000D+00  7.2353483703213D-01 -1.7604921922021D-01
175  1.7400000000000D+00  6.9091231554719D-01 -1.7221420954893D-01
176  1.7500000000000D+00  6.5878015840961D-01 -1.6815974200299D-01
177  1.7600000000000D+00  6.2721837472180D-01 -1.6391271325154D-01
178  1.7700000000000D+00  5.9629952940409D-01 -1.5949928579250D-01
179  1.7800000000000D+00  5.6608824935534D-01 -1.5494472187519D-01
180  1.7900000000000D+00  5.3664096132762D-01 -1.5027324279665D-01
181  1.8000000000000D+00  5.0800575211018D-01 -1.4550790289279D-01
182  1.8100000000000D+00  4.8022244306985D-01 -1.4067049537501D-01
183  1.8200000000000D+00  4.5332280529430D-01 -1.3578147958607D-01
184  1.8300000000000D+00  4.2733092626028D-01 -1.3085993759799D-01
185  1.8400000000000D+00  4.0226370904931D-01 -1.2592355739514D-01
186  1.8500000000000D+00  3.7813145384546D-01 -1.2098863736739D-01
187  1.8600000000000D+00  3.5493851896468D-01 -1.1607011679969D-01
188  1.8700000000000D+00  3.3268402500273D-01 -1.1118162034348D-01
189  1.8800000000000D+00  3.1136254404875D-01 -1.0633551935642D-01
190  1.8900000000000D+00  2.9096482721736D-01 -1.0154300463921D-01
191  1.9000000000000D+00  2.7147842939988D-01 -9.6814161966631D-02
192  1.9100000000000D+00  2.5288834929203D-01 -9.2158056702402D-02
193  1.9200000000000D+00  2.3517755437902D-01 -8.7582812741425D-02
194  1.9300000000000D+00  2.1832746123801D-01 -8.3095692869533D-02
195  1.9400000000000D+00  2.0231833944214D-01 -7.8703173938477D-02
196  1.9500000000000D+00  1.8712962192722D-01 -7.4411013270967D-02
197  1.9600000000000D+00  1.7274017619069D-01 -7.0224314180163D-02
198  1.9700000000000D+00  1.5912847948324D-01 -6.6147577054284D-02
199  1.9800000000000D+00  1.4627275972648D-01 -6.2184750073705D-02
200  1.9900000000000D+00  1.3415108030072D-01 -5.8339268671276D-02
201  2.0000000000000D+00  1.2274138557840D-01 -5.4614091004515D-02
202  2.0100000000000D+00  1.1202152051725D-01 -5.1011728121230D-02
203  2.0200000000000D+00  1.0196923315900D-01 -4.7534269291543D-02
204  2.0300000000000D+00  9.2562150061904D-02 -4.4183403901932D-02
205  2.0400000000000D+00  8.3777769568476D-02 -4.0960441986536D-02
206  2.0500000000000D+00  7.5593430632115D-02 -3.7866331304716D-02
207  2.0600000000000D+00  6.7986303632973D-02 -3.4901675187238D-02
208  2.0700000000000D+00  6.0933384873024D-02 -3.2066749554311D-02
209  2.0800000000000D+00  5.4411493405528D-02 -2.9361519155102D-02
210  2.0900000000000D+00  4.8397297752133D-02 -2.6785656818913D-02
211  2.1000000000000D+00  4.2867337390305D-02 -2.4338560822629D-02
212  2.1100000000000D+00  3.7798071528899D-02 -2.2019375624987D-02
213  2.1200000000000D+00  3.3165936010424D-02 -1.9827012852824D-02
214  2.1300000000000D+00  2.8947410045852D-02 -1.7760172956013D-02
215  2.1400000000000D+00  2.5119100840013D-02 -1.5817369383570D-02
216  2.1500000000000D+00  2.1657832183440D-02 -1.3996952249234D-02
217  2.1600000000000D+00  1.8540744643132D-02 -1.2297133767291D-02
218  2.1700000000000D+00  1.5745401806589D-02 -1.0716014007954D-02
219  2.1800000000000D+00  1.3249901338011D-02 -9.2516067406060D-03
220  2.1900000000000D+00  1.1032988851276D-02 -7.9018657381647D-03
221  2.2000000000000D+00  9.0741748701052D-03 -6.6647107222323D-03
222  2.2100000000000D+00  7.3538504164429D-03 -5.5380528481396D-03
223  2.2200000000000D+00  5.8534003786310D-03 -4.5198194136403D-03
224  2.2300000000000D+00  4.5553174394435D-03 -3.6079779697835D-03
225  2.2400000000000D+00  3.4434403877495D-03 -2.8007478155077D-03
226  2.2500000000000D+00  2.5027647365936D-03 -2.0962089838782D-03
227  2.2600000000000D+00  1.7191638417756D-03 -1.4917927729213D-03
228  2.2700000000000D+00  1.0806397297404D-03 -9.8489788170907D-04
229  2.2800000000000D+00  5.7727442936715D-04 -5.7637220334188D-04
230  2.2900000000000D+00  2.0101748177253D-04 -2.6747212667749D-04
231  2.3000000000000D+00 -6.0558789997944D-05 -5.5929324757049D-05
232  2.3100000000000D+00 -2.0378720782945D-04  6.3802053694574D-05
233  2.3200000000000D+00 -2.3225829430114D-04  1.0254642228838D-04
234  2.3300000000000D+00 -1.5978509316604D-04  7.7210132536850D-05
235  2.3400000000000D+00 -5.5217385559792D-05  2.7699938945462D-05
236  2.3500000000000D+00  1.8121726721082D-05 -9.2174113154421D-06
237  2.3600000000000D+00  3.0880956841642D-05 -1.5939013413295D-05
238  2.3700000000000D+00  1.1462442303024D-05 -5.9755528671475D-06
239  2.3800000000000D+00 -4.7258425697203D-06  2.3520562914396D-06
240  2.3900000000000D+00 -6.5721566834619D-06  3.2898196155082D-06
241  2.4000000000000D+00 -1.7481239443455D-06  8.7913029419592D-07
242  2.4100000000000D+00  5.2504216805617D-07 -2.2489143000183D-07
243  2.4200000000000D+00  6.2069769652025D-07 -2.6586358403569D-07
244  2.4300000000000D+00  9.7783456779327D-08 -4.1883610048007D-08
245  2.4400000000000D+00  0.0000000000000D+00  0.0000000000000D+00
246  2.4500000000000D+00  0.0000000000000D+00  0.0000000000000D+00
247  2.4600000000000D+00  0.0000000000000D+00  0.0000000000000D+00
248  2.4700000000000D+00  0.0000000000000D+00  0.0000000000000D+00
249  2.4800000000000D+00  0.0000000000000D+00  0.0000000000000D+00
250  2.4900000000000D+00  0.0000000000000D+00  0.0000000000000D+00
251  2.5000000000000D+00  0.0000000000000D+00  0.0000000000000D+00
252  2.5100000000000D+00  0.0000000000000D+00  0.0000000000000D+00
253  2.5200000000000D+00  0.0000000000000D+00  0.0000000000000D+00
254  2.5300000000000D+00  0.0000000000000D+00  0.0000000000000D+00
255  2.5400000000000D+00  0.0000000000000D+00  0.0000000000000D+00
256  2.5500000000000D+00  0.0000000000000D+00  0.0000000000000D+00
257  2.5600000000000D+00  0.0000000000000D+00  0.0000000000000D+00
258  2.5700000000000D+00  0.0000000000000D+00  0.0000000000000D+00
259  2.5800000000000D+00  0.0000000000000D+00  0.0000000000000D+00
260  2.5900000000000D+00  0.0000000000000D+00  0.0000000000000D+00
261  2.6000000000000D+00  0.0000000000000D+00  0.0000000000000D+00
262  2.6100000000000D+00  0.0000000000000D+00  0.0000000000000D+00
263  2.6200000000000D+00  0.0000000000000D+00  0.0000000000000D+00
264  2.6300000000000D+00  0.0000000000000D+00  0.0000000000000D+00
265  2.6400000000000D+00  0.0000000000000D+00  0.0000000000000D+00
266  2.6500000000000D+00  0.0000000000000D+00  0.0000000000000D+00
267  2.6600000000000D+00  0.0000000000000D+00  0.0000000000000D+00
268  2.6700000000000D+00  0.0000000000000D+00  0.0000000000000D+00
269  2.6800000000000D+00  0.0000000000000D+00  0.0000000000000D+00
270  2.6900000000000D+00  0.0000000000000D+00  0.0000000000000D+00
271  2.7000000000000D+00  0.0000000000000D+00  0.0000000000000D+00
272  2.7100000000000D+00  0.0000000000000D+00  0.0000000000000D+00
273  2.7200000000000D+00  0.0000000000000D+00  0.0000000000000D+00
274  2.7300000000000D+00  0.0000000000000D+00  0.0000000000000D+00
275  2.7400000000000D+00  0.0000000000000D+00  0.0000000000000D+00
276  2.7500000000000D+00  0.0000000000000D+00  0.0000000000000D+00
277  2.7600000000000D+00  0.0000000000000D+00  0.0000000000000D+00
278  2.7700000000000D+00  0.0000000000000D+00  0.0000000000000D+00
279  2.7800000000000D+00  0.0000000000000D+00  0.0000000000000D+00
280  2.7900000000000D+00  0.0000000000000D+00  0.0000000000000D+00
281  2.8000000000000D+00  0.0000000000000D+00  0.0000000000000D+00
282  2.8100000000000D+00  0.0000000000000D+00  0.0000000000000D+00
283  2.8200000000000D+00  0.0000000000000D+00  0.0000000000000D+00
284  2.8300000000000D+00  0.0000000000000D+00  0.0000000000000D+00
285  2.8400000000000D+00  0.0000000000000D+00  0.0000000000000D+00
286  2.8500000000000D+00  0.0000000000000D+00  0.0000000000000D+00
287  2.8600000000000D+00  0.0000000000000D+00  0.0000000000000D+00
288  2.8700000000000D+00  0.0000000000000D+00  0.0000000000000D+00
289  2.8800000000000D+00  0.0000000000000D+00  0.0000000000000D+00
290  2.8900000000000D+00  0.0000000000000D+00  0.0000000000000D+00
291  2.9000000000000D+00  0.0000000000000D+00  0.0000000000000D+00
292  2.9100000000000D+00  0.0000000000000D+00  0.0000000000000D+00
293  2.9200000000000D+00  0.0000000000000D+00  0.0000000000000D+00
294  2.9300000000000D+00  0.0000000000000D+00  0.0000000000000D+00
295  2.9400000000000D+00  0.0000000000000D+00  0.0000000000000D+00
296  2.9500000000000D+00  0.0000000000000D+00  0.0000000000000D+00
297  2.9600000000000D+00  0.0000000000000D+00  0.0000000000000D+00
298  2.9700000000000D+00  0.0000000000000D+00  0.0000000000000D+00
299  2.9800000000000D+00  0.0000000000000D+00  0.0000000000000D+00
300  2.9900000000000D+00  0.0000000000000D+00  0.0000000000000D+00
301  3.0000000000000D+00  0.0000000000000D+00  0.0000000000000D+00
302  3.0100000000000D+00  0.0000000000000D+00  0.0000000000000D+00
303  3.0200000000000D+00  0.0000000000000D+00  0.0000000000000D+00
304  3.0300000000000D+00  0.0000000000000D+00  0.0000000000000D+00
305  3.0400000000000D+00  0.0000000000000D+00  0.0000000000000D+00
306  3.0500000000000D+00  0.0000000000000D+00  0.0000000000000D+00
307  3.0600000000000D+00  0.0000000000000D+00  0.0000000000000D+00
308  3.0700000000000D+00  0.0000000000000D+00  0.0000000000000D+00
309  3.0800000000000D+00  0.0000000000000D+00  0.0000000000000D+00
310  3.0900000000000D+00  0.0000000000000D+00  0.0000000000000D+00
311  3.1000000000000D+00  0.0000000000000D+00  0.0000000000000D+00
312  3.1100000000000D+00  0.0000000000000D+00  0.0000000000000D+00
313  3.1200000000000D+00  0.0000000000000D+00  0.0000000000000D+00
314  3.1300000000000D+00  0.0000000000000D+00  0.0000000000000D+00
315  3.1400000000000D+00  0.0000000000000D+00  0.0000000000000D+00
316  3.1500000000000D+00  0.0000000000000D+00  0.0000000000000D+00
317  3.1600000000000D+00  0.0000000000000D+00  0.0000000000000D+00
318  3.1700000000000D+00  0.0000000000000D+00  0.0000000000000D+00
319  3.1800000000000D+00  0.0000000000000D+00  0.0000000000000D+00
320  3.1900000000000D+00  0.0000000000000D+00  0.0000000000000D+00
321  3.2000000000000D+00  0.0000000000000D+00  0.0000000000000D+00
322  3.2100000000000D+00  0.0000000000000D+00  0.0000000000000D+00
323  3.2200000000000D+00  0.0000000000000D+00  0.0000000000000D+00
324  3.2300000000000D+00  0.0000000000000D+00  0.0000000000000D+00
325  3.2400000000000D+00  0.0000000000000D+00  0.0000000000000D+00
326  3.2500000000000D+00  0.0000000000000D+00  0.0000000000000D+00
327  3.2600000000000D+00  0.0000000000000D+00  0.0000000000000D+00
328  3.2700000000000D+00  0.0000000000000D+00  0.0000000000000D+00
329  3.2800000000000D+00  0.0000000000000D+00  0.0000000000000D+00
330  3.2900000000000D+00  0.0000000000000D+00  0.0000000000000D+00
331  3.3000000000000D+00  0.0000000000000D+00  0.0000000000000D+00
332  3.3100000000000D+00  0.0000000000000D+00  0.0000000000000D+00
333  3.3200000000000D+00  0.0000000000000D+00  0.0000000000000D+00
334  3.3300000000000D+00  0.0000000000000D+00  0.0000000000000D+00
335  3.3400000000000D+00  0.0000000000000D+00  0.0000000000000D+00
336  3.3500000000000D+00  0.0000000000000D+00  0.0000000000000D+00
337  3.3600000000000D+00  0.0000000000000D+00  0.0000000000000D+00
338  3.3700000000000D+00  0.0000000000000D+00  0.0000000000000D+00
339  3.3800000000000D+00  0.0000000000000D+00  0.0000000000000D+00
340  3.3900000000000D+00  0.0000000000000D+00  0.0000000000000D+00
341  3.4000000000000D+00  0.0000000000000D+00  0.0000000000000D+00
342  3.4100000000000D+00  0.0000000000000D+00  0.0000000000000D+00
343  3.4200000000000D+00  0.0000000000000D+00  0.0000000000000D+00
344  3.4300000000000D+00  0.0000000000000D+00  0.0000000000000D+00
345  3.4400000000000D+00  0.0000000000000D+00  0.0000000000000D+00
346  3.4500000000000D+00  0.0000000000000D+00  0.0000000000000D+00
347  3.4600000000000D+00  0.0000000000000D+00  0.0000000000000D+00
348  3.4700000000000D+00  0.0000000000000D+00  0.0000000000000D+00
349  3.4800000000000D+00  0.0000000000000D+00  0.0000000000000D+00
350  3.4900000000000D+00  0.0000000000000D+00  0.0000000000000D+00
351  3.5000000000000D+00  0.0000000000000D+00  0.0000000000000D+00
352  3.5100000000000D+00  0.0000000000000D+00  0.0000000000000D+00
353  3.5200000000000D+00  0.0000000000000D+00  0.0000000000000D+00
354  3.5300000000000D+00  0.0000000000000D+00  0.0000000000000D+00
355  3.5400000000000D+00  0.0000000000000D+00  0.0000000000000D+00
356  3.5500000000000D+00  0.0000000000000D+00  0.0000000000000D+00
357  3.5600000000000D+00  0.0000000000000D+00  0.0000000000000D+00
358  3.5700000000000D+00  0.0000000000000D+00  0.0000000000000D+00
359  3.5800000000000D+00  0.0000000000000D+00  0.0000000000000D+00
360  3.5900000000000D+00  0.0000000000000D+00  0.0000000000000D+00
361  3.6000000000000D+00  0.0000000000000D+00  0.0000000000000D+00
362  3.6100000000000D+00  0.0000000000000D+00  0.0000000000000D+00
363  3.6200000000000D+00  0.0000000000000D+00  0.0000000000000D+00
364  3.6300000000000D+00  0.0000000000000D+00  0.0000000000000D+00
365  3.6400000000000D+00  0.0000000000000D+00  0.0000000000000D+00
366  3.6500000000000D+00  0.0000000000000D+00  0.0000000000000D+00
367  3.6600000000000D+00  0.0000000000000D+00  0.0000000000000D+00
368  3.6700000000000D+00  0.0000000000000D+00  0.0000000000000D+00
369  3.6800000000000D+00  0.0000000000000D+00  0.0000000000000D+00
370  3.6900000000000D+00  0.0000000000000D+00  0.0000000000000D+00
371  3.7000000000000D+00  0.0000000000000D+00  0.0000000000000D+00
372  3.7100000000000D+00  0.0000000000000D+00  0.0000000000000D+00
373  3.7200000000000D+00  0.0000000000000D+00  0.0000000000000D+00
374  3.7300000000000D+00  0.0000000000000D+00  0.0000000000000D+00
375  3.7400000000000D+00  0.0000000000000D+00  0.0000000000000D+00
376  3.7500000000000D+00  0.0000000000000D+00  0.0000000000000D+00
377  3.7600000000000D+00  0.0000000000000D+00  0.0000000000000D+00
378  3.7700000000000D+00  0.0000000000000D+00  0.0000000000000D+00
379  3.7800000000000D+00  0.0000000000000D+00  0.0000000000000D+00
380  3.7900000000000D+00  0.0000000000000D+00  0.0000000000000D+00
381  3.8000000000000D+00  0.0000000000000D+00  0.0000000000000D+00
382  3.8100000000000D+00  0.0000000000000D+00  0.0000000000000D+00
383  3.8200000000000D+00  0.0000000000000D+00  0.0000000000000D+00
384  3.8300000000000D+00  0.0000000000000D+00  0.0000000000000D+00
385  3.8400000000000D+00  0.0000000000000D+00  0.0000000000000D+00
386  3.8500000000000D+00  0.0000000000000D+00  0.0000000000000D+00
387  3.8600000000000D+00  0.0000000000000D+00  0.0000000000000D+00
388  3.8700000000000D+00  0.0000000000000D+00  0.0000000000000D+00
389  3.8800000000000D+00  0.0000000000000D+00  0.0000000000000D+00
390  3.8900000000000D+00  0.0000000000000D+00  0.0000000000000D+00
391  3.9000000000000D+00  0.0000000000000D+00  0.0000000000000D+00
392  3.9100000000000D+00  0.0000000000000D+00  0.0000000000000D+00
393  3.9200000000000D+00  0.0000000000000D+00  0.0000000000000D+00
394  3.9300000000000D+00  0.0000000000000D+00  0.0000000000000D+00
395  3.9400000000000D+00  0.0000000000000D+00  0.0000000000000D+00
396  3.9500000000000D+00  0.0000000000000D+00  0.0000000000000D+00
397  3.9600000000000D+00  0.0000000000000D+00  0.0000000000000D+00
398  3.9700000000000D+00  0.0000000000000D+00  0.0000000000000D+00
399  3.9800000000000D+00  0.0000000000000D+00  0.0000000000000D+00
400  3.9900000000000D+00  0.0000000000000D+00  0.0000000000000D+00
1                         4.2763327967023D+00  7.5593708123093D-01  9.7623752876487D-05
1  0.0000000000000D+00  1.0187736765310D-10 -5.0427297754174D-11  1.1811786618243D-10
2  1.0000000000000D-02  1.1964058510382D-03 -3.8906258066068D-04 -2.1092282707539D-04
3  2.0000000000000D-02  4.7800717756481D-03 -1.5529379075276D-03 -8.4500605704939D-04
4  3.0000000000000D-02  1.0734365960712D-02 -3.4817042301119D-03 -1.9061815904420D-03
5  4.0000000000000D-02  1.9031645579566D-02 -6.1588769274007D-03 -3.4009615025322D-03
6  5.0000000000000D-02  2.9633371922780D-02 -9.5614858828718D-03 -5.3383766197354D-03
7  6.0000000000000D-02  4.2490271255042D-02 -1.3660183667623D-02 -7.7298909552398D-03
8  7.0000000000000D-02  5.7542541066723D-02 -1.8419384383838D-02 -1.0589292433265D-02
9  8.0000000000000D-02  7.4720101286880D-02 -2.3797432970390D-02 -1.3932560449426D-02
10  9.0000000000000D-02  9.3942889917266D-02 -2.9746804715891D-02 -1.7777710940751D-02
11  1.0000000000000D-01  1.1512120243366D-01 -3.6214334661017D-02 -2.2144619751212D-02
12  1.1000000000000D-01  1.3815607418063D-01 -4.3141476500322D-02 -2.7054825203743D-02
13  1.2000000000000D-01  1.6293970485789D-01 -5.0464590513350D-02 -3.2531310901756D-02
14  1.3000000000000D-01  1.8935592406059D-01 -5.8115259964854D-02 -3.8598269898786D-02
15  1.4000000000000D-01  2.1728069669151D-01 -6.6020635314023D-02 -4.5280851488384D-02
16  1.5000000000000D-01  2.4658266690998D-01 -7.4103805462413D-02 -5.2604891975784D-02
17  1.6000000000000D-01  2.7712373912149D-01 -8.2284195149802D-02 -6.0596630895788D-02
18  1.7000000000000D-01  3.0875969434217D-01 -9.0477987476554D-02 -6.9282414250737D-02
19  1.8000000000000D-01  3.4134084009533D-01 -9.8598570390743D-02 -7.8688386432456D-02
20  1.9000000000000D-01  3.7471269181355D-01 -1.0655700582871D-01 -8.8840172594617D-02
21  2.0000000000000D-01  4.0871668352991D-01 -1.1426252004000D-01 -9.9762553321185D-02
22  2.1000000000000D-01  4.4319090544739D-01 -1.2162301346247D-01 -1.1147913352622D-01
23  2.2000000000000D-01  4.7797086577792D-01 -1.2854558834238D-01 -1.2401200759036D-01
24  2.3000000000000D-01  5.1289027404275D-01 -1.3493709211875D-01 -1.3738142280971D-01
25  2.4000000000000D-01  5.4778184282645D-01 -1.4070467441277D-01 -1.5160544329178D-01
26  2.5000000000000D-01  5.8247810477911D-01 -1.4575635528378D-01 -1.6669961648207D-01
27  2.6000000000000D-01  6.1681224146805D-01 -1.5000160223487D-01 -1.8267664454808D-01
28  2.7000000000000D-01  6.5061892049252D-01 -1.5335191327593D-01 -1.9954606287660D-01
29  2.8000000000000D-01  6.8373513709660D-01 -1.5572140318193D-01 -2.1731392795856D-01
30  2.9000000000000D-01  7.1600105634735D-01 -1.5702738992235D-01 -2.3598251694388D-01
31  3.0000000000000D-01  7.4726085179062D-01 -1.5719097808501D-01 -2.5555004114308D-01
32  3.1000000000000D-01  7.7736353635862D-01 -1.5613763597879D-01 -2.7601037573397D-01