<?xml version="1.0" encoding="UTF-8" ?>
<psml version="1.1" energy_unit="hartree" length_unit="bohr"
 uuid="06dd8880-539e-11e8-62f0-8d2c93ef8567"
 xmlns="http://esl.cecam.org/PSML/ns/1.1">
<provenance creator="ONCVPSP-3.3.0+psml-3.3.0-73 (fully-relativistic)"
 date="2018-05-09">
<annotation action="semilocal-pseudopotential-generation"
 action-cont="projectors-generation" />
<input-file name="oncvpsp-input">
<![CDATA[# atsym z nc nv iexc psfile
Mg 12 1 3 -116133 upf
# n l f
1 0 2.0
2 0 2.0
2 1 6.0
3 0 2.0
# lmax
1
# l rc ep ncon nbas qcut
0 1.15 0.0 4 8 9.1
1 1.55 0.0 4 8 9.0
# lloc lpopt rc5 dvloc0
4 5 1.1 0.0
# l nproj debl
0 2 1.0
1 2 3.0
# icmod fcfact
0 4 1.5
# epsh1 epsh2 depsh
-12.0 12.0 0.02
# rlmax drl
4.0 0.01
 0
]]>
</input-file>
</provenance>
<pseudo-atom-spec atomic-label="Mg" atomic-number="12" z-pseudo="10"
 flavor="Hamann&apos;s oncvpsp" relativity="dirac" spin-dft="no"
 core-corrections="no">
<annotation pseudo-energy="-59.2396894109" />
<exchange-correlation>
<annotation oncvpsp-xc-code="-116133" oncvpsp-xc-type="libxc-interface" />
<libxc-info number-of-functionals="2">
<functional name="Perdew, Burke &amp; Ernzerhof SOL (GGA)" type="exchange"
 id="116" />
<functional name="Perdew, Burke &amp; Ernzerhof SOL (GGA)" type="correlation"
 id="133" />
</libxc-info>
</exchange-correlation>
<valence-configuration total-valence-charge="10">
<shell n="2" l="s" occupation="2" />
<shell n="2" l="p" occupation="6" />
<shell n="3" l="s" occupation="2" />
</valence-configuration>
</pseudo-atom-spec>
<grid npts="457">
<annotation type="sampled from oncvpsp log grid"
 recipe="r(i:1..N) = r1*exp(a*(i-1)) + r=0; resampled"
 recipe-cont="r1: scale; a: step" scale="0.416666666667E-04"
 step="0.119285708653E-01" delta="0.500000000000E-02" rmax="44.1290725605" />
<grid-data>
  0.000000000000E+00  5.039120976724E-03  1.006524869499E-02  1.509947805150E-02
  2.010454437589E-02  2.521877418060E-02  3.052194271270E-02  3.564173488318E-02
  4.112680627824E-02  4.633723448486E-02  5.158871650650E-02  5.675430673824E-02
  6.243712872626E-02  6.787447925602E-02  7.291041759287E-02  7.831999673271E-02
  8.413093890731E-02  8.930140632003E-02  9.478963713363E-02  1.006151602554E-01
  1.067987047883E-01  1.120180571063E-01  1.174924840404E-01  1.232344513249E-01
  1.292570339063E-01  1.355739457160E-01  1.421995708979E-01  1.473804313857E-01
  1.527500499353E-01  1.583153037066E-01  1.640833204201E-01  1.700614874857E-01
  1.762574614640E-01  1.826791778729E-01  1.893348613508E-01  1.962330361902E-01
  2.033825372554E-01  2.107925212977E-01  2.158818959319E-01  2.210941484273E-01
  2.264322455469E-01  2.318992256834E-01  2.374982005883E-01  2.432323571433E-01
  2.491049591741E-01  2.551193493084E-01  2.612789508781E-01  2.675872698681E-01
  2.740478969118E-01  2.806645093349E-01  2.874408732483E-01  2.943808456920E-01
  3.014883768304E-01  3.087675122006E-01  3.162223950151E-01  3.238572685204E-01
  3.316764784115E-01  3.396844753063E-01  3.478858172781E-01  3.562851724504E-01
  3.648873216541E-01  3.736971611481E-01  3.827197054069E-01  3.919600899742E-01
  4.014235743866E-01  4.111155451665E-01  4.210415188890E-01  4.260940171157E-01
  4.312071453211E-01  4.363816310649E-01  4.416182106377E-01  4.469176291654E-01
  4.522806407154E-01  4.577080084040E-01  4.632005045048E-01  4.687589105589E-01
  4.743840174856E-01  4.800766256954E-01  4.858375452037E-01  4.916675957462E-01
  4.975676068951E-01  5.035384181779E-01  5.095808791960E-01  5.156958497464E-01
  5.218841999433E-01  5.281468103426E-01  5.344845720667E-01  5.408983869316E-01
  5.473891675747E-01  5.539578375856E-01  5.606053316367E-01  5.673325956163E-01
  5.741405867637E-01  5.810302738049E-01  5.880026370905E-01  5.950586687356E-01
  6.021993727604E-01  6.094257652335E-01  6.167388744164E-01  6.241397409093E-01
  6.316294178003E-01  6.392089708139E-01  6.468794784636E-01  6.546420322052E-01
  6.624977365917E-01  6.704477094308E-01  6.784930819439E-01  6.866349989273E-01
  6.948746189144E-01  7.032131143414E-01  7.116516717134E-01  7.201914917740E-01
  7.288337896753E-01  7.375797951514E-01  7.464307526932E-01  7.553879217255E-01
  7.644525767862E-01  7.736260077077E-01  7.829095198002E-01  7.923044340378E-01
  8.018120872462E-01  8.114338322932E-01  8.211710382807E-01  8.310250907401E-01
  8.409973918289E-01  8.510893605309E-01  8.613024328573E-01  8.716380620516E-01
  8.820977187962E-01  8.926828914217E-01  9.033950861188E-01  9.142358271522E-01
  9.252066570780E-01  9.363091369630E-01  9.475448466065E-01  9.589153847658E-01
  9.704223693830E-01  9.820674378156E-01  9.938522470694E-01  1.005778474034E+00
  1.017847815723E+00  1.030061989511E+00  1.042422733385E+00  1.054931806186E+00
  1.067590987860E+00  1.080402079715E+00  1.093366904671E+00  1.106487307527E+00
  1.119765155218E+00  1.133202337080E+00  1.146800765125E+00  1.160562374307E+00
  1.174489122798E+00  1.188582992272E+00  1.202845988179E+00  1.217280140037E+00
  1.231887501718E+00  1.246670151738E+00  1.261630193559E+00  1.276769755882E+00
  1.292090992953E+00  1.307596084868E+00  1.323287237886E+00  1.339166684741E+00
  1.355236684958E+00  1.371499525177E+00  1.387957519480E+00  1.404613009713E+00
  1.421468365830E+00  1.438525986220E+00  1.455788298054E+00  1.473257757631E+00
  1.490936850723E+00  1.508828092931E+00  1.526934030047E+00  1.545257238407E+00
  1.563800325268E+00  1.582565929171E+00  1.601556720321E+00  1.620775400965E+00
  1.640224705777E+00  1.659907402246E+00  1.679826291073E+00  1.699984206566E+00
  1.720384017045E+00  1.741028625249E+00  1.761920968752E+00  1.783064020377E+00
  1.804460788622E+00  1.826114318085E+00  1.848027689902E+00  1.870204022181E+00
  1.892646470447E+00  1.915358228093E+00  1.938342526830E+00  1.961602637152E+00
  1.985141868797E+00  2.008963571223E+00  2.033071134078E+00  2.057467987687E+00
  2.082157603539E+00  2.107143494781E+00  2.132429216719E+00  2.158018367319E+00
  2.183914587727E+00  2.210121562780E+00  2.236643021533E+00  2.263482737792E+00
  2.290644530645E+00  2.318132265013E+00  2.345949852193E+00  2.374101250419E+00
  2.402590465424E+00  2.431421551009E+00  2.460598609622E+00  2.490125792937E+00
  2.520007302452E+00  2.550247390082E+00  2.580850358763E+00  2.611820563068E+00
  2.643162409825E+00  2.674880358743E+00  2.706978923047E+00  2.739462670124E+00
  2.772336222165E+00  2.805604256831E+00  2.839271507913E+00  2.873342766008E+00
  2.907822879201E+00  2.942716753751E+00  2.978029354796E+00  3.013765707053E+00
  3.049930895538E+00  3.086530066285E+00  3.123568427080E+00  3.161051248205E+00
  3.198983863183E+00  3.237371669542E+00  3.276220129576E+00  3.315534771131E+00
  3.355321188385E+00  3.395585042645E+00  3.436332063157E+00  3.477568047915E+00
  3.519298864490E+00  3.561530450864E+00  3.604268816274E+00  3.647520042069E+00
  3.691290282574E+00  3.735585765965E+00  3.780412795157E+00  3.825777748699E+00
  3.871687081683E+00  3.918147326663E+00  3.965165094583E+00  4.012747075718E+00
  4.060900040627E+00  4.109630841114E+00  4.158946411208E+00  4.208853768142E+00
  4.259360013360E+00  4.310472333520E+00  4.362198001522E+00  4.414544377541E+00
  4.467518910071E+00  4.521129136992E+00  4.575382686636E+00  4.630287278875E+00
  4.685850726222E+00  4.742080934937E+00  4.798985906156E+00  4.856573737030E+00
  4.914852621874E+00  4.973830853337E+00  5.033516823577E+00  5.093919025460E+00
  5.155046053765E+00  5.216906606410E+00  5.279509485687E+00  5.342863599515E+00
  5.406977962710E+00  5.471861698262E+00  5.537524038641E+00  5.603974327105E+00
  5.671222019030E+00  5.739276683259E+00  5.808148003458E+00  5.877845779499E+00
  5.948379928853E+00  6.019760487999E+00  6.091997613855E+00  6.165101585222E+00
  6.239082804244E+00  6.313951797895E+00  6.389719219470E+00  6.466395850104E+00
  6.543992600305E+00  6.622520511509E+00  6.701990757647E+00  6.782414646738E+00
  6.863803622499E+00  6.946169265969E+00  7.029523297161E+00  7.113877576727E+00
  7.199244107648E+00  7.285635036939E+00  7.373062657383E+00  7.461539409271E+00
  7.551077882182E+00  7.641690816769E+00  7.733391106570E+00  7.826191799849E+00
  7.920106101447E+00  8.015147374664E+00  8.111329143160E+00  8.208665092878E+00
  8.307169073993E+00  8.406855102881E+00  8.507737364115E+00  8.609830212485E+00
  8.713148175034E+00  8.817705953135E+00  8.923518424572E+00  9.030600645667E+00
  9.138967853415E+00  9.248635467656E+00  9.359619093268E+00  9.471934522387E+00
  9.585597736656E+00  9.700624909496E+00  9.817032408410E+00  9.934836797311E+00
  1.005405483888E+01  1.017470349694E+01  1.029679993891E+01  1.042036153818E+01
  1.054540587663E+01  1.067195074715E+01  1.080001415612E+01  1.092961432599E+01
  1.106076969790E+01  1.119349893428E+01  1.132782092149E+01  1.146375477255E+01
  1.160131982982E+01  1.174053566778E+01  1.188142209579E+01  1.202399916094E+01
  1.216828715087E+01  1.231430659668E+01  1.246207827584E+01  1.261162321515E+01
  1.276296269373E+01  1.291611824606E+01  1.307111166501E+01  1.322796500499E+01
  1.338670058505E+01  1.354734099207E+01  1.370990908398E+01  1.387442799298E+01
  1.404092112890E+01  1.420941218245E+01  1.437992512864E+01  1.455248423018E+01
  1.472711404094E+01  1.490383940943E+01  1.508268548235E+01  1.526367770813E+01
  1.544684184063E+01  1.563220394272E+01  1.581979039003E+01  1.600962787471E+01
  1.620174340921E+01  1.639616433012E+01  1.659291830208E+01  1.679203332171E+01
  1.699353772157E+01  1.719746017423E+01  1.740382969632E+01  1.761267565267E+01
  1.782402776050E+01  1.803791609363E+01  1.825437108675E+01  1.847342353979E+01
  1.869510462227E+01  1.891944587774E+01  1.914647922827E+01  1.937623697901E+01
  1.960875182276E+01  1.984405684463E+01  2.008218552677E+01  2.032317175309E+01
  2.056704981413E+01  2.081385441190E+01  2.106362066484E+01  2.131638411282E+01
  2.157218072217E+01  2.183104689084E+01  2.209301945353E+01  2.235813568697E+01
  2.262643331521E+01  2.289795051500E+01  2.317272592118E+01  2.345079863223E+01
  2.373220821582E+01  2.401699471441E+01  2.430519865098E+01  2.459686103479E+01
  2.489202336721E+01  2.519072764761E+01  2.549301637939E+01  2.579893257594E+01
  2.610851976685E+01  2.642182200405E+01  2.673888386810E+01  2.705975047452E+01
  2.738446748021E+01  2.771308108997E+01  2.804563806305E+01  2.838218571981E+01
  2.872277194845E+01  2.906744521183E+01  2.941625455437E+01  2.976924960902E+01
  3.012648060433E+01  3.048799837158E+01  3.085385435204E+01  3.122410060427E+01
  3.159878981152E+01  3.197797528926E+01  3.236171099273E+01  3.275005152464E+01
  3.314305214294E+01  3.354076876865E+01  3.394325799388E+01  3.435057708980E+01
  3.476278401488E+01  3.517993742306E+01  3.560209667214E+01  3.602932183220E+01
  3.646167369419E+01  3.689921377852E+01  3.734200434386E+01  3.779010839599E+01
  3.824358969674E+01  3.870251277310E+01  3.916694292638E+01  3.963694624149E+01
  4.011258959639E+01  4.059394067155E+01  4.108106795961E+01  4.157404077512E+01
  4.207292926442E+01  4.257780441560E+01  4.308873806858E+01  4.360580292541E+01
  4.412907256051E+01
</grid-data>
</grid>
<valence-charge total-charge="10" is-unscreening-charge="yes"
 rescaled-to-z-pseudo="no">
<radfunc>
<data npts="457">
  2.556826974439E+01  2.557532227411E+01  2.559639512720E+01  2.563152045177E+01
  2.568029144143E+01  2.574430467599E+01  2.582569876197E+01  2.591864074687E+01
  2.603368172727E+01  2.615757513444E+01  2.629661882156E+01  2.644702274460E+01
  2.662778479627E+01  2.681539368559E+01  2.700160940223E+01  2.721461822974E+01
  2.745794042045E+01  2.768664651272E+01  2.794150787456E+01  2.822510504099E+01
  2.854015916709E+01  2.881675315473E+01  2.911677841043E+01  2.944173235663E+01
  2.979309923855E+01  3.017231936070E+01  3.058075055463E+01  3.090698874313E+01
  3.125080416075E+01  3.161257286019E+01  3.199257679703E+01  3.239098268386E+01
  3.280781808097E+01  3.324294453375E+01  3.369602759177E+01  3.416650358293E+01
  3.465354307039E+01  3.515601099480E+01  3.549884396833E+01  3.584734757222E+01
  3.620090239363E+01  3.655879816878E+01  3.692022706415E+01  3.728427685054E+01
  3.764992403164E+01  3.801602700153E+01  3.838131931876E+01  3.874440320011E+01
  3.910374335330E+01  3.945766128532E+01  3.980433024188E+01  4.014177095287E+01
  4.046784837898E+01  4.078026967498E+01  4.107658360564E+01  4.135418166982E+01
  4.161030120659E+01  4.184203077323E+01  4.204631809764E+01  4.221998091652E+01
  4.235972101309E+01  4.246214176398E+01  4.252376949182E+01  4.254107889641E+01
  4.251052280123E+01  4.242856640200E+01  4.229172613739E+01  4.220166057176E+01
  4.209661321778E+01  4.197618318005E+01  4.183998174426E+01  4.168763411696E+01
  4.151878122583E+01  4.133308157596E+01  4.113021315734E+01  4.090987539775E+01
  4.067179115444E+01  4.041570873735E+01  4.014140395553E+01  3.984868217769E+01
  3.953738039691E+01  3.920736928856E+01  3.885855524966E+01  3.849088240701E+01
  3.810433458050E+01  3.769893718727E+01  3.727475907146E+01  3.683191424367E+01
  3.637056351351E+01  3.589091599813E+01  3.539323048885E+01  3.487781665812E+01
  3.434503608833E+01  3.379530310415E+01  3.322908539009E+01  3.264690437536E+01
  3.204933536820E+01  3.143700742309E+01  3.081060292461E+01  3.017085687325E+01
  2.951855585963E+01  2.885453671551E+01  2.817968483161E+01  2.749493213476E+01
  2.680125471918E+01  2.609967012951E+01  2.539123429628E+01  2.467703812764E+01
  2.395820376470E+01  2.323588051151E+01  2.251124045450E+01  2.178547379019E+01
  2.105978388388E+01  2.033538208628E+01  1.961348233900E+01  1.889529560357E+01
  1.818202415274E+01  1.747485576624E+01  1.677495787623E+01  1.608347171101E+01
  1.540150648749E+01  1.473013370512E+01  1.407038159528E+01  1.342322978056E+01
  1.278960419861E+01  1.217037234395E+01  1.156633888000E+01  1.097824167059E+01
  1.040674827713E+01  9.852452963454E+00  9.315874245191E+00  8.797453014787E+00
  8.297551266925E+00  7.816451441820E+00  7.354356396335E+00  6.911390004790E+00
  6.487598383082E+00  6.082951721315E+00  5.697346701840E+00  5.330609471508E+00
  4.982499129281E+00  4.652711683230E+00  4.340884424678E+00  4.046600661781E+00
  3.769394750520E+00  3.508757357860E+00  3.264140889910E+00  3.034965017274E+00
  2.820622230493E+00  2.620483360479E+00  2.433903002094E+00  2.260224783457E+00
  2.098786577221E+00  1.948926032965E+00  1.809986103843E+00  1.681318934403E+00
  1.562289408373E+00  1.452278294493E+00  1.350685010642E+00  1.256929997940E+00
  1.170456713453E+00  1.090733253866E+00  1.017253627399E+00  9.495386947507E-01
  8.871368021726E-01  8.296241309394E-01  7.766047875120E-01  7.277106577153E-01
  6.826010464943E-01  6.409621224748E-01  6.025061839322E-01  5.669707601559E-01
  5.341175599169E-01  5.037312770853E-01  4.756182626879E-01  4.496050730463E-01
  4.255369052316E-01  4.032753615755E-01  3.826940071764E-01  3.636730994005E-01
  3.460993949831E-01  3.298658810930E-01  3.148715430233E-01  3.010211283817E-01
  2.882249112862E-01  2.763984603884E-01  2.654624144979E-01  2.553422690460E-01
  2.459681755861E-01  2.372747550810E-01  2.292009241097E-01  2.216897316615E-01
  2.146882031595E-01  2.081471879886E-01  2.020212071073E-01  1.962682981799E-01
  1.908498568121E-01  1.857304736596E-01  1.808777681669E-01  1.762622203753E-01
  1.718570025730E-01  1.676378126084E-01  1.635827105154E-01  1.596719598109E-01
  1.558878744903E-01  1.522146724216E-01  1.486383355498E-01  1.451464771008E-01
  1.417282157923E-01  1.383740569409E-01  1.350757802709E-01  1.318263341797E-01
  1.286197361892E-01  1.254509793002E-01  1.223159439705E-01  1.192113154408E-01
  1.161345061452E-01  1.130835829579E-01  1.100571990369E-01  1.070545300431E-01
  1.040752145242E-01  1.011192982646E-01  9.818718241460E-02  9.527957522115E-02
  9.239744719237E-02  8.954198953567E-02  8.671457571685E-02  8.391672599380E-02
  8.115007478486E-02  7.841634073634E-02  7.571729935924E-02  7.305475810883E-02
  7.043053378499E-02  6.784643213464E-02  6.530422954075E-02  6.280565668568E-02
  6.035238407912E-02  5.794600934389E-02  5.558804615514E-02  5.327991473118E-02
  5.102293377649E-02  4.881831377993E-02  4.666715157348E-02  4.457042605970E-02
  4.252899501821E-02  4.054359290477E-02  3.861482955930E-02  3.674318974249E-02
  3.492903342427E-02  3.317259675153E-02  3.147399362657E-02  2.983321783286E-02
  2.825014564976E-02  2.672453890329E-02  2.525604840617E-02  2.384421774583E-02
  2.248848738536E-02  2.118819904025E-02  1.994260034657E-02  1.875084971812E-02
  1.761202145930E-02  1.652511107757E-02  1.548904079001E-02  1.450266520974E-02
  1.356477719661E-02  1.267411385306E-02  1.182936264257E-02  1.102916760358E-02
  1.027213562714E-02  9.556842761899E-03  8.881840506373E-03  8.245662045165E-03
  7.646828383805E-03  7.083854336296E-03  6.555254319964E-03  6.059547914231E-03
  5.595265143036E-03  5.160951444920E-03  4.755172299798E-03  4.376517487202E-03
  4.023604956799E-03  3.695084298215E-03  3.389639803365E-03  3.105993120339E-03
  2.842905503403E-03  2.599179668636E-03  2.373661269083E-03  2.165240007014E-03
  1.972850403934E-03  1.795472251357E-03  1.632130767104E-03  1.481896483017E-03
  1.343884890563E-03  1.217255870902E-03  1.101212935632E-03  9.950023037184E-04
  8.979118390636E-04  8.092698719224E-04  7.284439258513E-04  6.548393702837E-04
  5.878980170958E-04  5.270966777643E-04  4.719456959415E-04  4.219874685235E-04
  3.767949665976E-04  3.359702660438E-04  2.991430960602E-04  2.659694124972E-04
  2.361300016289E-04  2.093291188721E-04  1.852931659781E-04  1.637694093790E-04
  1.445247416486E-04  1.273444874370E-04  1.120312547471E-04  9.840383202039E-05
  8.629613118252E-05  7.555617654929E-05  6.604513929629E-05  5.763641704170E-05
  5.021475797347E-05  4.367542884955E-05  3.792342611786E-05  3.287272933227E-05
  2.844559597276E-05  2.457189671437E-05  2.118849012906E-05  1.823863574370E-05
  1.567144431890E-05  1.344136415615E-05  1.150770218710E-05  9.834178548396E-06
  8.388513301329E-06  7.142043916854E-06  6.069372115706E-06  5.148038630172E-06
  4.358224439618E-06  3.682477026089E-06  3.105460199393E-06  2.613726052760E-06
  2.195507630148E-06  1.840530913943E-06  1.539844776552E-06  1.285667580420E-06
  1.071249157570E-06  8.907469508298E-07  7.391151538460E-07  6.120057446879E-07
  5.056803676463E-07  4.169320788798E-07  3.430160331302E-07  2.815882501747E-07
  2.306516603983E-07  1.885086883517E-07  1.537196909542E-07  1.250666227528E-07
  1.015213540489E-07  8.221811852889E-08  6.642961511445E-08  5.354633397046E-08
  4.305871890871E-08  3.454181779169E-08  2.764210899033E-08  2.206622553900E-08
  1.757132944143E-08  1.395691671613E-08  1.105785935102E-08  8.738513497230E-09
  6.887744115071E-09  5.414735038736E-09  4.245470201586E-09  3.319786711309E-09
  2.588913732502E-09  2.013422867791E-09  1.561526066642E-09  1.207666166154E-09
  9.313531058676E-10  7.162057765923E-10  5.491654709390E-10  4.198521020358E-10
  3.200388397681E-10  2.432246659070E-10  1.842876478212E-10  1.392045448421E-10
  1.048247543831E-10  7.868863258533E-11  5.888193634076E-11  4.391957410414E-11
  3.265306073747E-11  2.419708078706E-11  1.787140476515E-11  1.315510001841E-11
  9.650553946663E-12  7.055301929158E-12  5.140041825119E-12  3.731535437284E-12
  2.699356848463E-12  1.945658215171E-12  1.397293990639E-12  9.997818422248E-13
  7.126887384977E-13  5.061188164108E-13  3.580498516539E-13  2.523208746552E-13
  1.771175207174E-13  1.238363845198E-13  8.623684949861E-14  5.981011008613E-14
  4.131163528644E-14  2.841613036643E-14  1.946393685480E-14  1.327540578982E-14
  9.015590713312E-15  6.096035087590E-15  4.103788445310E-15  2.750323473011E-15
  1.834934974778E-15  1.218630874317E-15  8.055907770876E-16  5.300581654339E-16
  3.471162446352E-16  2.262267976645E-16  1.467255988345E-16  9.469677675566E-17
  6.081439488300E-17  3.885917551076E-17  2.470418731276E-17  1.562466951889E-17
  9.830770273178E-18  6.152810342870E-18  3.830374952807E-18  2.371717742005E-18
  1.460530080860E-18  8.944484097859E-19  5.447139842731E-19  3.298534228880E-19
  1.986017893089E-19  1.188844637647E-19  7.074839055924E-20  4.185303004856E-20
  2.461076520245E-20  1.438400463592E-20  8.355245718101E-21  4.823154671267E-21
  2.766706770737E-21  1.576965028739E-21  8.930474385241E-22  5.024426694628E-22
  2.808174297535E-22  0.000000000000E+00  0.000000000000E+00  0.000000000000E+00
  0.000000000000E+00  0.000000000000E+00  0.000000000000E+00  0.000000000000E+00
  0.000000000000E+00
</data>
</radfunc>
</valence-charge>
<semilocal-potentials set="lj">
<slps n="2" l="s" j="0.5" rc="1.16056237431" eref="-2.92480989529">
<radfunc>
<data npts="256">
 -2.037494829015E+01 -2.037500262856E+01 -2.037514588792E+01 -2.037532364397E+01
 -2.037544818769E+01 -2.037540580244E+01 -2.037503434339E+01 -2.037420619951E+01
 -2.037263454563E+01 -2.037032889635E+01 -2.036706241690E+01 -2.036280925859E+01
 -2.035682675443E+01 -2.034974063774E+01 -2.034194011528E+01 -2.033220553752E+01
 -2.032017371486E+01 -2.030810411073E+01 -2.029391034475E+01 -2.027732562985E+01
 -2.025806870197E+01 -2.024054164941E+01 -2.022095952668E+01 -2.019916075491E+01
 -2.017497863621E+01 -2.014824097561E+01 -2.011876939788E+01 -2.009476024788E+01
 -2.006902765032E+01 -2.004148705223E+01 -2.001205023595E+01 -1.998062470978E+01
 -1.994711299228E+01 -1.991141177636E+01 -1.987341095643E+01 -1.983299249821E+01
 -1.979002912721E+01 -1.974438280785E+01 -1.971238762663E+01 -1.967908529675E+01
 -1.964442453623E+01 -1.960835056292E+01 -1.957080473453E+01 -1.953172415737E+01
 -1.949104126300E+01 -1.944868335354E+01 -1.940457211727E+01 -1.935862311785E+01
 -1.931074526271E+01 -1.926084025863E+01 -1.920880206553E+01 -1.915451636317E+01
 -1.909786004923E+01 -1.903870079127E+01 -1.897689665940E+01 -1.891229586982E+01
 -1.884473667246E+01 -1.877404741701E+01 -1.870004683118E+01 -1.862254454151E+01
 -1.854134186064E+01 -1.845623285513E+01 -1.836700569468E+01 -1.827344426855E+01
 -1.817533003735E+01 -1.807244407287E+01 -1.796456922414E+01 -1.790869414148E+01
 -1.785149234016E+01 -1.779293816369E+01 -1.773300647761E+01 -1.767167273333E+01
 -1.760891302957E+01 -1.754470417138E+01 -1.747902372666E+01 -1.741185008021E+01
 -1.734316248556E+01 -1.727294111493E+01 -1.720116710760E+01 -1.712782261732E+01
 -1.705289085923E+01 -1.697635615698E+01 -1.689820399065E+01 -1.681842104604E+01
 -1.673699526601E+01 -1.665391590436E+01 -1.656917358260E+01 -1.648276035002E+01
 -1.639466974717E+01 -1.630489687259E+01 -1.621343845286E+01 -1.612029291527E+01
 -1.602546046261E+01 -1.592894314924E+01 -1.583074495728E+01 -1.573087187180E+01
 -1.562933195334E+01 -1.552613540622E+01 -1.542129464086E+01 -1.531482432809E+01
 -1.520674144343E+01 -1.509706529935E+01 -1.498581756329E+01 -1.487302225954E+01
 -1.475870575298E+01 -1.464289671297E+01 -1.452562605587E+01 -1.440692686515E+01
 -1.428683428813E+01 -1.416538540941E+01 -1.404261910119E+01 -1.391857585164E+01
 -1.379329757340E+01 -1.366682739485E+01 -1.353920943837E+01 -1.341048859049E+01
 -1.328071027037E+01 -1.314992020429E+01 -1.301816421537E+01 -1.288548803903E+01
 -1.275193717656E+01 -1.261755680039E+01 -1.248239172650E+01 -1.234648647066E+01
 -1.220988540694E+01 -1.207263304774E+01 -1.193477446614E+01 -1.179635588184E+01
 -1.165742543234E+01 -1.151803415103E+01 -1.137823717287E+01 -1.123809518653E+01
 -1.109767614907E+01 -1.095705727494E+01 -1.081632730497E+01 -1.067558905340E+01
 -1.053496222070E+01 -1.039458644816E+01 -1.025462457585E+01 -1.011526604997E+01
 -9.976730408671E+00 -9.839270759040E+00 -9.703177142216E+00 -9.568779671595E+00
 -9.436451321238E+00 -9.306610240696E+00 -9.179721479880E+00 -9.056298024999E+00
 -8.936901079378E+00 -8.822139502611E+00 -8.712668490175E+00 -8.609188542571E+00
 -8.509445659787E+00 -8.410519319813E+00 -8.312485713336E+00 -8.215356300764E+00
 -8.119144334959E+00 -8.023863256598E+00 -7.929525695339E+00 -7.836142450513E+00
 -7.743721624965E+00 -7.652267957336E+00 -7.561782437114E+00 -7.472262269184E+00
 -7.383701239316E+00 -7.296090504201E+00 -7.209419793346E+00 -7.123678969993E+00
 -7.038859861871E+00 -6.954958248480E+00 -6.871975885613E+00 -6.789922459528E+00
 -6.708817382027E+00 -6.628691204659E+00 -6.549588304648E+00 -6.471569792114E+00
 -6.394679115753E+00 -6.318845423266E+00 -6.243930917141E+00 -6.169890489317E+00
 -6.096729662182E+00 -6.024436105016E+00 -5.952999711446E+00 -5.882410292410E+00
 -5.812657801479E+00 -5.743732321741E+00 -5.675624063730E+00 -5.608323363381E+00
 -5.541820678178E+00 -5.476106581294E+00 -5.411171756047E+00 -5.347006990557E+00
 -5.283603173632E+00 -5.220951292283E+00 -5.159042430846E+00 -5.097867771399E+00
 -5.037418594913E+00 -4.977686282591E+00 -4.918662316939E+00 -4.860338282306E+00
 -4.802705864817E+00 -4.745756851739E+00 -4.689483130401E+00 -4.633876686833E+00
 -4.578929604245E+00 -4.524634061457E+00 -4.470982331347E+00 -4.417966779371E+00
 -4.365579862153E+00 -4.313814126166E+00 -4.262662206481E+00 -4.212116825594E+00
 -4.162170792295E+00 -4.112817000595E+00 -4.064048428682E+00 -4.015858137904E+00
 -3.968239271780E+00 -3.921185055028E+00 -3.874688792609E+00 -3.828743868786E+00
 -3.783343746189E+00 -3.738481964901E+00 -3.694152141548E+00 -3.650347968399E+00
 -3.607063212478E+00 -3.564291714685E+00 -3.522027388925E+00 -3.480264221250E+00
 -3.438996269004E+00 -3.398217659987E+00 -3.357922591618E+00 -3.318105330113E+00
 -3.278760209673E+00 -3.239881631680E+00 -3.201464063900E+00 -3.163502039700E+00
 -3.125990157268E+00 -3.088923078852E+00 -3.052295529997E+00 -3.016102298798E+00
 -2.980338235161E+00 -2.944998250071E+00 -2.910077314873E+00 -2.875570460555E+00
 -2.841472777048E+00 -2.807779412528E+00 -2.774485572728E+00 -2.741586520261E+00
 -2.709077573948E+00 -2.676954108153E+00 -2.645211552129E+00 -2.613845389367E+00
 -2.582851156954E+00 -2.552224444938E+00 -2.521960895697E+00 -2.492056203315E+00
</data>
</radfunc>
</slps>
<slps n="2" l="p" j="1.5" rc="1.56380032527" eref="-1.70699754538">
<radfunc>
<data npts="256">
 -2.575152041866E+01 -2.575150028559E+01 -2.575142079982E+01 -2.575122652462E+01
 -2.575083295335E+01 -2.575010777208E+01 -2.574886357971E+01 -2.574703261513E+01
 -2.574421036142E+01 -2.574054620885E+01 -2.573574052015E+01 -2.572980480659E+01
 -2.572177558748E+01 -2.571253642179E+01 -2.570256929779E+01 -2.569031959954E+01
 -2.567536566968E+01 -2.566050068061E+01 -2.564313473198E+01 -2.562294749712E+01
 -2.559959595010E+01 -2.557839129761E+01 -2.555472954835E+01 -2.552840229176E+01
 -2.549919009184E+01 -2.546686131262E+01 -2.543117053049E+01 -2.540203962562E+01
 -2.537075412141E+01 -2.533719058180E+01 -2.530121817344E+01 -2.526269769353E+01
 -2.522148045987E+01 -2.517740704756E+01 -2.513030585446E+01 -2.507999147362E+01
 -2.502626284791E+01 -2.496890117836E+01 -2.492852463365E+01 -2.488635139339E+01
 -2.484230027683E+01 -2.479628479599E+01 -2.474821270027E+01 -2.469798548660E+01
 -2.464549787437E+01 -2.459063724578E+01 -2.453328305318E+01 -2.447330619661E+01
 -2.441056837668E+01 -2.434492143049E+01 -2.427620666105E+01 -2.420425417388E+01
 -2.412888223830E+01 -2.404989669440E+01 -2.396709043045E+01 -2.388024295861E+01
 -2.378912011910E+01 -2.369347394322E+01 -2.359304270471E+01 -2.348755118411E+01
 -2.337671116365E+01 -2.326022215929E+01 -2.313777238224E+01 -2.300903990586E+01
 -2.287369399590E+01 -2.273139654486E+01 -2.258180353717E+01 -2.250416242962E+01
 -2.242456646327E+01 -2.234297158249E+01 -2.225933359993E+01 -2.217360822415E+01
 -2.208575108279E+01 -2.199571774112E+01 -2.190346371581E+01 -2.180894448432E+01
 -2.171211548986E+01 -2.161293214257E+01 -2.151134981742E+01 -2.140732384955E+01
 -2.130080952786E+01 -2.119176208792E+01 -2.108013670511E+01 -2.096588848921E+01
 -2.084897248174E+01 -2.072934365701E+01 -2.060695692844E+01 -2.048176716119E+01
 -2.035372919253E+01 -2.022279786096E+01 -2.008892804555E+01 -1.995207471637E+01
 -1.981219299746E+01 -1.966923824309E+01 -1.952316612876E+01 -1.937393275771E+01
 -1.922149478422E+01 -1.906580955472E+01 -1.890683526788E+01 -1.874453115486E+01
 -1.857885768117E+01 -1.840977677135E+01 -1.823725205819E+01 -1.806124915812E+01
 -1.788173597468E+01 -1.769868303221E+01 -1.751206384188E+01 -1.732185530287E+01
 -1.712803814116E+01 -1.693059738911E+01 -1.672952290906E+01 -1.652480996425E+01
 -1.631645984094E+01 -1.610448052546E+01 -1.588888744020E+01 -1.566970424268E+01
 -1.544696369188E+01 -1.522070858589E+01 -1.499099277480E+01 -1.475788225283E+01
 -1.452145633270E+01 -1.428180890555E+01 -1.403904978815E+01 -1.379330615902E+01
 -1.354472408349E+01 -1.329347012643E+01 -1.303973304982E+01 -1.278372559009E+01
 -1.252568630752E+01 -1.226588149695E+01 -1.200460714511E+01 -1.174219091476E+01
 -1.147899413005E+01 -1.121541372986E+01 -1.095188414659E+01 -1.068887905695E+01
 -1.042691293778E+01 -1.016654234467E+01 -9.908366813621E+00 -9.653029267345E+00
 -9.401215787603E+00 -9.153654596265E+00 -8.911114070079E+00 -8.674399600849E+00
 -8.444349105288E+00 -8.221826989741E+00 -8.007716386592E+00 -7.802909503427E+00
 -7.608295969051E+00 -7.424749053900E+00 -7.253109828776E+00 -7.094170314326E+00
 -6.948655878703E+00 -6.817201858370E+00 -6.700327568624E+00 -6.598415719858E+00
 -6.511691663420E+00 -6.440200924475E+00 -6.383788781658E+00 -6.342081976679E+00
 -6.314473424069E+00 -6.300110611601E+00 -6.297888331088E+00 -6.306446237760E+00
 -6.324171571832E+00 -6.349207186812E+00 -6.379464836952E+00 -6.412643506197E+00
 -6.446252443015E+00 -6.477638530991E+00 -6.504017702046E+00 -6.522510307000E+00
 -6.530180703166E+00 -6.524081653598E+00 -6.501306621728E+00 -6.459051097852E+00
 -6.394648494417E+00 -6.318845423266E+00 -6.243930917141E+00 -6.169890489317E+00
 -6.096729662182E+00 -6.024436105016E+00 -5.952999711446E+00 -5.882410292410E+00
 -5.812657801479E+00 -5.743732321741E+00 -5.675624063730E+00 -5.608323363381E+00
 -5.541820678178E+00 -5.476106581294E+00 -5.411171756047E+00 -5.347006990557E+00
 -5.283603173632E+00 -5.220951292283E+00 -5.159042430846E+00 -5.097867771399E+00
 -5.037418594913E+00 -4.977686282591E+00 -4.918662316939E+00 -4.860338282306E+00