<?xml version="1.0" encoding="UTF-8" ?>
<psml version="1.1" energy_unit="hartree" length_unit="bohr"
 uuid="0f853bb0-53a1-11e8-4ed6-c9f8f9fabaac"
 xmlns="http://esl.cecam.org/PSML/ns/1.1">
<provenance creator="ONCVPSP-3.3.0+psml-3.3.0-73 (fully-relativistic)"
 date="2018-05-09">
<annotation action="semilocal-pseudopotential-generation"
 action-cont="projectors-generation" />
<input-file name="oncvpsp-input">
<![CDATA[# atsym z nc nv iexc psfile
Y 39 6 4 -116133 upf
# n l f
1 0 2.0
2 0 2.0
2 1 6.0
3 0 2.0
3 1 6.0
3 2 10.0
4 0 2.0
4 1 6.0
4 2 1.0
5 0 2.0
# lmax
2
# l rc ep ncon nbas qcut
0 1.6 0.0 4 7 7.0
1 1.5 0.0 4 9 8.6
2 1.55 0.0 4 9 8.8
# lloc lpopt rc5 dvloc0
4 5 1.5 0.0
# l nproj debl
0 2 1.0
1 2 2.0
2 2 3.2
# icmod fcfact
3 4 1.35
# epsh1 epsh2 depsh
-12.0 12.0 0.02
# rlmax drl
6.0 0.01
 0
]]>
</input-file>
</provenance>
<pseudo-atom-spec atomic-label="Y" atomic-number="39" z-pseudo="11"
 flavor="Hamann&apos;s oncvpsp" relativity="dirac" spin-dft="no"
 core-corrections="yes">
<annotation pseudo-energy="-38.3864524891" />
<exchange-correlation>
<annotation oncvpsp-xc-code="-116133" oncvpsp-xc-type="libxc-interface" />
<libxc-info number-of-functionals="2">
<functional name="Perdew, Burke &amp; Ernzerhof SOL (GGA)" type="exchange"
 id="116" />
<functional name="Perdew, Burke &amp; Ernzerhof SOL (GGA)" type="correlation"
 id="133" />
</libxc-info>
</exchange-correlation>
<valence-configuration total-valence-charge="11">
<shell n="4" l="s" occupation="2" />
<shell n="4" l="p" occupation="6" />
<shell n="4" l="d" occupation="1" />
<shell n="5" l="s" occupation="2" />
</valence-configuration>
</pseudo-atom-spec>
<grid npts="457">
<annotation type="sampled from oncvpsp log grid"
 recipe="r(i:1..N) = r1*exp(a*(i-1)) + r=0; resampled"
 recipe-cont="r1: scale; a: step" scale="0.128205128205E-04"
 step="0.119285708653E-01" delta="0.500000000000E-02" rmax="44.2295149952" />
<grid-data>
  0.000000000000E+00  5.050590548830E-03  1.008815826517E-02  1.513384605994E-02
  2.015030444445E-02  2.527617477690E-02  3.059141388125E-02  3.572285924000E-02
  4.073163561015E-02  4.589199894225E-02  5.109302162005E-02  5.620897780706E-02
  6.183719588184E-02  6.722230113325E-02  7.307636941178E-02  7.849826132568E-02
  8.432242981903E-02  8.950466576223E-02  9.500538836940E-02  1.008441709977E-01
  1.070417899317E-01  1.122730220474E-01  1.177599093560E-01  1.235149459651E-01
  1.295512365812E-01  1.358825263501E-01  1.425232321553E-01  1.477158848294E-01
  1.530977251985E-01  1.586756460758E-01  1.644567914052E-01  1.704485654110E-01
  1.766586420811E-01  1.830949749956E-01  1.897658075127E-01  1.966796833273E-01
  2.038454574128E-01  2.112723073622E-01  2.163732659512E-01  2.215973820843E-01
  2.269476292774E-01  2.324270528386E-01  2.380387716024E-01  2.437859797039E-01
  2.496719483979E-01  2.557000279200E-01  2.618736493941E-01  2.681963267851E-01
  2.746716588990E-01  2.813033314314E-01  2.880951190655E-01  2.950508876202E-01
  3.021745962510E-01  3.094702997028E-01  3.169421506189E-01  3.245944019034E-01
  3.324314091430E-01  3.404576330853E-01  3.486776421785E-01  3.570961151713E-01
  3.657178437760E-01  3.745477353961E-01  3.835908159195E-01  3.928522325791E-01
  4.023372568825E-01  4.120512876126E-01  4.219998539007E-01  4.270638521475E-01
  4.321886183733E-01  4.373748817938E-01  4.426233803753E-01  4.479348609398E-01
  4.533100792711E-01  4.587498002224E-01  4.642547978250E-01  4.698258553989E-01
  4.754637656637E-01  4.811693308517E-01  4.869433628219E-01  4.927866831758E-01
  4.987001233739E-01  5.046845248544E-01  5.107407391526E-01  5.168696280224E-01
  5.230720635587E-01  5.293489283214E-01  5.357011154613E-01  5.421295288468E-01
  5.486350831930E-01  5.552187041913E-01  5.618813286416E-01  5.686239045853E-01
  5.754473914403E-01  5.823527601376E-01  5.893409932592E-01  5.964130851783E-01
  6.035700422005E-01  6.108128827069E-01  6.181426372994E-01  6.255603489470E-01
  6.330670731343E-01  6.406638780119E-01  6.483518445481E-01  6.561320666827E-01
  6.640056514829E-01  6.719737193007E-01  6.800374039323E-01  6.881978527794E-01
  6.964562270128E-01  7.048137017370E-01  7.132714661578E-01  7.218307237517E-01
  7.304926924367E-01  7.392586047460E-01  7.481297080029E-01  7.571072644989E-01
  7.661925516729E-01  7.753868622930E-01  7.846915046405E-01  7.941078026962E-01
  8.036370963286E-01  8.132807414845E-01  8.230401103823E-01  8.329165917069E-01
  8.429115908074E-01  8.530265298971E-01  8.632628482558E-01  8.736220024349E-01
  8.841054664641E-01  8.947147320617E-01  9.054513088464E-01  9.163167245526E-01
  9.273125252472E-01  9.384402755502E-01  9.497015588568E-01  9.610979775631E-01
  9.726311532938E-01  9.843027271334E-01  9.961143598590E-01  1.008067732177E+00
  1.020164544963E+00  1.032406519503E+00  1.044795397737E+00  1.057332942510E+00
  1.070020937820E+00  1.082861189074E+00  1.095855523343E+00  1.109005789623E+00
  1.122313859098E+00  1.135781625407E+00  1.149411004912E+00  1.163203936971E+00
  1.177162384215E+00  1.191288332826E+00  1.205583792819E+00  1.220050798333E+00
  1.234691407913E+00  1.249507704808E+00  1.264501797266E+00  1.279675818833E+00
  1.295031928659E+00  1.310572311803E+00  1.326299179545E+00  1.342214769699E+00
  1.358321346936E+00  1.374621203099E+00  1.391116657536E+00  1.407810057426E+00
  1.424703778116E+00  1.441800223453E+00  1.459101826134E+00  1.476611048048E+00
  1.494330380625E+00  1.512262345192E+00  1.530409493334E+00  1.548774407254E+00
  1.567359700141E+00  1.586168016543E+00  1.605202032742E+00  1.624464457135E+00
  1.643958030620E+00  1.663685526988E+00  1.683649753311E+00  1.703853550351E+00
  1.724299792955E+00  1.744991390471E+00  1.765931287156E+00  1.787122462602E+00
  1.808567932154E+00  1.830270747339E+00  1.852233996308E+00  1.874460804263E+00
  1.896954333914E+00  1.919717785921E+00  1.942754399352E+00  1.966067452145E+00
  1.989660261570E+00  2.013536184709E+00  2.037698618926E+00  2.062151002353E+00
  2.086896814381E+00  2.111939576154E+00  2.137282851067E+00  2.162930245280E+00
  2.188885408224E+00  2.215152033122E+00  2.241733857520E+00  2.268634663810E+00
  2.295858279776E+00  2.323408579133E+00  2.351289482083E+00  2.379504955868E+00
  2.408059015338E+00  2.436955723522E+00  2.466199192204E+00  2.495793582511E+00
  2.525743105501E+00  2.556052022767E+00  2.586724647040E+00  2.617765342805E+00
  2.649178526918E+00  2.680968669241E+00  2.713140293272E+00  2.745697976791E+00
  2.778646352513E+00  2.811990108743E+00  2.845733990048E+00  2.879882797929E+00
  2.914441391504E+00  2.949414688202E+00  2.984807664460E+00  3.020625356434E+00
  3.056872860711E+00  3.093555335040E+00  3.130677999060E+00  3.168246135049E+00
  3.206265088669E+00  3.244740269733E+00  3.283677152970E+00  3.323081278806E+00
  3.362958254151E+00  3.403313753201E+00  3.444153518240E+00  3.485483360459E+00
  3.527309160784E+00  3.569636870713E+00  3.612472513162E+00  3.655822183320E+00
  3.699692049520E+00  3.744088354114E+00  3.789017414363E+00  3.834485623336E+00
  3.880499450816E+00  3.927065444226E+00  3.974190229556E+00  4.021880512311E+00
  4.070143078459E+00  4.118984795400E+00  4.168412612945E+00  4.218433564300E+00
  4.269054767072E+00  4.320283424277E+00  4.372126825368E+00  4.424592347273E+00
  4.477687455440E+00  4.531419704905E+00  4.585796741364E+00  4.640826302260E+00
  4.696516217887E+00  4.752874412502E+00  4.809908905452E+00  4.867627812318E+00
  4.926039346065E+00  4.985151818218E+00  5.044973640037E+00  5.105513323717E+00
  5.166779483602E+00  5.228780837405E+00  5.291526207454E+00  5.355024521943E+00
  5.419284816207E+00  5.484316234001E+00  5.550128028809E+00  5.616729565155E+00
  5.684130319937E+00  5.752339883776E+00  5.821367962381E+00  5.891224377930E+00
  5.961919070465E+00  6.033462099311E+00  6.105863644502E+00  6.179134008236E+00
  6.253283616335E+00  6.328323019731E+00  6.404262895968E+00  6.481114050720E+00
  6.558887419328E+00  6.637594068360E+00  6.717245197181E+00  6.797852139547E+00
  6.879426365221E+00  6.961979481604E+00  7.045523235383E+00  7.130069514208E+00
  7.215630348378E+00  7.302217912559E+00  7.389844527509E+00  7.478522661840E+00
  7.568264933782E+00  7.659084112987E+00  7.750993122343E+00  7.844005039811E+00
  7.938133100289E+00  8.033390697492E+00  8.129791385862E+00  8.227348882492E+00
  8.326077069082E+00  8.425989993911E+00  8.527101873838E+00  8.629427096324E+00
  8.732980221480E+00  8.837775984138E+00  8.943829295948E+00  9.051155247499E+00
  9.159769110469E+00  9.269686339795E+00  9.380922575872E+00  9.493493646783E+00
  9.607415570544E+00  9.722704557391E+00  9.839377012079E+00  9.957449536224E+00
  1.007693893066E+01  1.019786219783E+01  1.032023654420E+01  1.044407938273E+01
  1.056940833532E+01  1.069624123535E+01  1.082459613017E+01  1.095449128373E+01
  1.108594517914E+01  1.121897652129E+01  1.135360423954E+01  1.148984749042E+01
  1.162772566030E+01  1.176725836823E+01  1.190846546865E+01  1.205136705427E+01
  1.219598345892E+01  1.234233526043E+01  1.249044328355E+01  1.264032860296E+01
  1.279201254619E+01  1.294551669675E+01  1.310086289711E+01  1.325807325187E+01
  1.341717013089E+01  1.357817617246E+01  1.374111428653E+01  1.390600765797E+01
  1.407287974987E+01  1.424175430687E+01  1.441265535855E+01  1.458560722285E+01
  1.476063450953E+01  1.493776212364E+01  1.511701526912E+01  1.529841945235E+01
  1.548200048578E+01  1.566778449161E+01  1.585579790551E+01  1.604606748038E+01
  1.623862029014E+01  1.643348373362E+01  1.663068553843E+01  1.683025376489E+01
  1.703221681007E+01  1.723660341179E+01  1.744344265273E+01  1.765276396456E+01
  1.786459713214E+01  1.807897229772E+01  1.829591996529E+01  1.851547100488E+01
  1.873765665694E+01  1.896250853682E+01  1.919005863926E+01  1.942033934293E+01
  1.965338341505E+01  1.988922401603E+01  2.012789470422E+01  2.036942944067E+01
  2.061386259396E+01  2.086122894509E+01  2.111156369243E+01  2.136490245674E+01
  2.162128128622E+01  2.188073666165E+01  2.214330550159E+01  2.240902516761E+01
  2.267793346962E+01  2.295006867126E+01  2.322546949531E+01  2.350417512926E+01
  2.378622523081E+01  2.407165993358E+01  2.436051985278E+01  2.465284609101E+01
  2.494868024411E+01  2.524806440704E+01  2.555104117992E+01  2.585765367408E+01
  2.616794551817E+01  2.648196086439E+01  2.679974439476E+01  2.712134132750E+01
  2.744679742343E+01  2.777615899251E+01  2.810947290042E+01  2.844678657522E+01
  2.878814801412E+01  2.913360579029E+01  2.948320905978E+01  2.983700756849E+01
  3.019505165932E+01  3.055739227923E+01  3.092408098658E+01  3.129516995842E+01
  3.167071199792E+01  3.205076054189E+01  3.243536966840E+01  3.282459410442E+01
  3.321848923367E+01  3.361711110447E+01  3.402051643773E+01  3.442876263498E+01
  3.484190778660E+01  3.526001068004E+01  3.568313080820E+01  3.611132837790E+01
  3.654466431843E+01  3.698320029026E+01  3.742699869374E+01  3.787612267806E+01
  3.833063615020E+01  3.879060378400E+01  3.925609102941E+01  3.972716412176E+01
  4.020389009122E+01  4.068633677232E+01  4.117457281359E+01  4.166866768735E+01
  4.216869169960E+01  4.267471599999E+01  4.318681259199E+01  4.370505434310E+01
  4.422951499521E+01
</grid-data>
</grid>
<valence-charge total-charge="11" is-unscreening-charge="yes"
 rescaled-to-z-pseudo="no">
<radfunc>
<data npts="457">
  4.694838187704E-02  4.708008031500E-02  4.747406091423E-02  4.813232297310E-02
  4.904954309621E-02  5.025915104120E-02  5.180664708442E-02  5.358674277276E-02
  5.559857762129E-02  5.795848617420E-02  6.063632188913E-02  6.356837608590E-02
  6.714175071015E-02  7.090864784738E-02  7.539810915517E-02  7.993123464234E-02
  8.521256978904E-02  9.027938316447E-02  9.604604543074E-02  1.026163601689E-01
  1.101111610071E-01  1.168666024338E-01  1.243864769519E-01  1.327649771182E-01
  1.421091580902E-01  1.525408559151E-01  1.641989010830E-01  1.738416831361E-01
  1.843378746369E-01  1.957703249942E-01  2.082306382077E-01  2.218201315112E-01
  2.366508916910E-01  2.528469357364E-01  2.705454818820E-01  2.898983360925E-01
  3.110733975020E-01  3.342562840952E-01  3.509274185448E-01  3.686475777069E-01
  3.874871762688E-01  4.075213582524E-01  4.288302676034E-01  4.514993237253E-01
  4.756194998129E-01  5.012876013221E-01  5.286065413148E-01  5.576856087344E-01
  5.886407248800E-01  6.215946824593E-01  6.566773605895E-01  6.940259079806E-01
  7.337848852688E-01  7.761063560489E-01  8.211499145993E-01  8.690826365752E-01
  9.200789370776E-01  9.743203184921E-01  1.031994988333E+00  1.093297325048E+00
  1.158427167368E+00  1.227588900343E+00  1.300990308779E+00  1.378841166385E+00
  1.461351526739E+00  1.548729680188E+00  1.641179739253E+00  1.689368690114E+00
  1.738898814110E+00  1.789793119020E+00  1.842073739527E+00  1.895761807769E+00
  1.950877315459E+00  2.007438967330E+00  2.065464025698E+00  2.124968145941E+00
  2.185965202737E+00  2.248467106929E+00  2.312483612961E+00  2.378022116823E+00
  2.445087444562E+00  2.513681631438E+00  2.583803691885E+00  2.655449380535E+00
  2.728610944629E+00  2.803276868251E+00  2.879431608930E+00  2.957055327270E+00
  3.036123610387E+00  3.116607190097E+00  3.198471656915E+00  3.281677171110E+00
  3.366178172230E+00  3.451923088658E+00  3.538854049000E+00  3.626906597258E+00
  3.716009413966E+00  3.806084045679E+00  3.897044645397E+00  3.988797726754E+00
  4.081241934987E+00  4.174267837921E+00  4.267757740431E+00  4.361585525994E+00
  4.455616529183E+00  4.549707443049E+00  4.643706265549E+00  4.737452289221E+00
  4.830776138438E+00  4.923499858575E+00  5.015437061423E+00  5.106393131133E+00
  5.196165494835E+00  5.284543961915E+00  5.371311135652E+00  5.456242900613E+00
  5.539108988793E+00  5.619673626970E+00  5.697696267213E+00  5.772932401765E+00
  5.845134462822E+00  5.914052806855E+00  5.979436782224E+00  6.041035877834E+00
  6.098600949529E+00  6.151885519785E+00  6.200647145133E+00  6.244648844500E+00
  6.283660580510E+00  6.317460784529E+00  6.345837915082E+00  6.368592038152E+00
  6.385536416768E+00  6.396499096325E+00  6.401324471221E+00  6.399874817614E+00
  6.392031776528E+00  6.377697771088E+00  6.356797341386E+00  6.329278380411E+00
  6.295113254541E+00  6.254299792424E+00  6.206862126507E+00  6.152851372173E+00
  6.092346130235E+00  6.025452799589E+00  5.952305687971E+00  5.873066910094E+00
  5.787926063951E+00  5.697099677687E+00  5.600830421268E+00  5.499386079148E+00
  5.393058282330E+00  5.282161000560E+00  5.167028798073E+00  5.048014859133E+00
  4.925488792812E+00  4.799834229879E+00  4.671446228402E+00  4.540728508711E+00
  4.408090542553E+00  4.273944525688E+00  4.138702267586E+00  4.002772036233E+00
  3.866555400101E+00  3.730444112937E+00  3.594817089934E+00  3.460037525776E+00
  3.326450205867E+00  3.194379061447E+00  3.064125017132E+00  2.935964175584E+00
  2.810146378451E+00  2.686894175408E+00  2.566402599370E+00  2.448840947011E+00
  2.334355853899E+00  2.223072297809E+00  2.115093532003E+00  2.010502079327E+00
  1.909361484361E+00  1.811718718664E+00  1.717604973551E+00  1.627036533073E+00
  1.540015656349E+00  1.456531482942E+00  1.376560948655E+00  1.300069706406E+00
  1.227013046193E+00  1.157336808644E+00  1.090978287019E+00  1.027867113020E+00
  9.679261223410E-01  9.110721959171E-01  8.572170736342E-01  8.062681374969E-01
  7.581291616845E-01  7.127010273115E-01  6.698824000791E-01  6.295703693628E-01
  5.916610476211E-01  5.560501293336E-01  5.226334089893E-01  4.913072579332E-01
  4.619690601627E-01  4.345176074234E-01  4.088534542056E-01  3.848792334773E-01
  3.624999342102E-01  3.416231419678E-01  3.221592440190E-01  3.040216006252E-01
  2.871266843170E-01  2.713941891257E-01  2.567471118628E-01  2.431118076358E-01
  2.304180218534E-01  2.185989009868E-01  2.075909843267E-01  1.973341788860E-01
  1.877717194669E-01  1.788501157292E-01  1.705190878898E-01  1.627314924632E-01
  1.554432392483E-01  1.486132005858E-01  1.422031137849E-01  1.361774775371E-01
  1.305034431068E-01  1.251507011277E-01  1.200913648102E-01  1.152998504690E-01
  1.107527562894E-01  1.064287402623E-01  1.023083982013E-01  9.837414271452E-02
  9.461008392971E-02  9.100191268843E-02  8.753678682301E-02  8.420322102933E-02
  8.099098074708E-02  7.789098036453E-02  7.489518597935E-02  7.199652287136E-02
  6.918878777841E-02  6.646656601182E-02  6.382515340259E-02  6.126048303225E-02
  5.876905667222E-02  5.634788083126E-02  5.399440729126E-02  5.170647799634E-02
  4.948227414799E-02  4.732026934973E-02  4.521918663730E-02  4.317795922484E-02
  4.119569479341E-02  3.927164314511E-02  3.740516704418E-02  3.559571606532E-02
  3.384280326902E-02  3.214598452441E-02  3.050484030123E-02  2.891895975451E-02
  2.738792692877E-02  2.591130891253E-02  2.448864577908E-02  2.311944215635E-02
  2.180316027651E-02  2.053921436584E-02  1.932696624654E-02  1.816572203467E-02
  1.705472983228E-02  1.599317832594E-02  1.498019621806E-02  1.401485242187E-02
  1.309615702324E-02  1.222306286164E-02  1.139446780955E-02  1.060921766315E-02
  9.866109623035E-03  9.163896328265E-03  8.501290398879E-03  7.876969432326E-03
  7.289581388583E-03  6.737750288636E-03  6.220082142219E-03  5.735171014453E-03
  5.281605137686E-03  4.857972974867E-03  4.462869144073E-03  4.094900120142E-03
  3.752689638193E-03  3.434883734577E-03  3.140155372833E-03  2.867208614803E-03
  2.614782309701E-03  2.381653286004E-03  2.166639042261E-03  1.968599942915E-03
  1.786440933885E-03  1.619112799824E-03  1.465612990719E-03  1.324986049779E-03
  1.196323677546E-03  1.078764468973E-03  9.714933609473E-04  8.737408275696E-04
  7.847818596139E-04  7.039347630696E-04  6.305598096870E-04  5.640577701151E-04
  5.038683576503E-04  4.494686078998E-04  4.003712168948E-04  3.561228574265E-04
  3.163024907011E-04  2.805196878468E-04  2.484129734158E-04  2.196482008203E-04
  1.939169676580E-04  1.709350771161E-04  1.504410501120E-04  1.321946915128E-04
  1.159757126803E-04  1.015824116825E-04  8.883041178649E-05  7.755145827908E-05
  6.759227321936E-05  5.881346739857E-05  5.108850853930E-05  4.430274458979E-05
  3.835248084297E-05  3.314410951933E-05  2.859329038483E-05  2.462418092290E-05
  2.116871453459E-05  1.816592520068E-05  1.556131700104E-05  1.330627684842E-05
  1.135752875738E-05  9.676627934426E-06  8.229492943861E-06  6.985974177408E-06
  5.919456835313E-06  5.006496613718E-06  4.226486288766E-06  3.561351392738E-06
  2.995273191872E-06  2.514437199481E-06  2.106805491232E-06  1.761911131504E-06
  1.470673069869E-06  1.225229923988E-06  1.018791128699E-06  8.455039995647E-07
  7.003353317239E-07  5.789662302738E-07  4.776989457509E-07  3.933745664077E-07
  3.233004971273E-07  2.651867320949E-07  2.170900040634E-07  1.773649665994E-07
  1.446216365586E-07  1.176883918192E-07  9.557988367703E-08  7.746928404967E-08
  6.266434461080E-08  5.058679809788E-08  4.075468129442E-08  3.276720462762E-08
  2.629183502364E-08  2.105329675179E-08  1.682422961454E-08  1.341727517795E-08
  1.067838997335E-08  8.481209937327E-09  6.722312996582E-09  5.317246853306E-09
  4.197206889190E-09  3.306264880977E-09  2.599063099137E-09  2.038900526909E-09
  1.596148562350E-09  1.246942813146E-09  9.721056132835E-10  7.562608212202E-10
  5.871084281814E-10  4.548316288124E-10  3.516133895091E-10  2.712432870472E-10
  2.087985662740E-10  1.603860561150E-10  1.229338548885E-10  9.402360794421E-11
  7.175580479905E-11  5.464186456303E-11  4.151789697439E-11  3.147595600162E-11
  2.380937322380E-11  1.796939443861E-11  1.353086688284E-11  1.016515459813E-11
  7.618811559671E-12  5.696829512793E-12  4.249511245902E-12  3.162209684350E-12
  2.347326597743E-12  1.738088439458E-12  1.283716337017E-12  9.456870398165E-13
  6.948454296022E-13  5.091800704291E-13  3.721137232664E-13  2.711928198613E-13
  1.970852571499E-13  1.428159116713E-13  1.031847432300E-13  5.343332143983E-14
  5.223819318198E-15  3.487537417263E-15  2.317755088175E-15  1.533241000435E-15
  1.009539932474E-15  6.615801489884E-16  4.314820216363E-16  2.800524070888E-16
  1.808785491572E-16  1.162466512155E-16  7.433504893669E-17  4.729339172187E-17
  2.993466997265E-17  1.884902475185E-17  1.180637519615E-17  7.355803543865E-18
  4.558287728949E-18  2.809333590945E-18  1.721893958574E-18  1.049499441837E-18
  6.360651458962E-19  3.832966877350E-19  2.296427626269E-19  1.367805901975E-19
  8.098780269245E-20  4.766583845342E-20  2.788405953803E-20  1.621191015072E-20
  9.367197475213E-21  5.378360715962E-21  3.068470522691E-21  1.739371026328E-21
  9.795514360849E-22  0.000000000000E+00  0.000000000000E+00  0.000000000000E+00
  0.000000000000E+00
</data>
</radfunc>
</valence-charge>
<pseudocore-charge matching-radius="0.873622002435"
 number-of-continuous-derivatives="4">
<annotation model-charge-form="Teter function with specified parameters" />
<radfunc>
<data npts="290">
  2.689449870655E+01  2.689294046092E+01  2.688828228951E+01  2.688051068756E+01
  2.686970513655E+01  2.685549633605E+01  2.683738632452E+01  2.681664729894E+01
  2.679332656673E+01  2.676612832863E+01  2.673546792107E+01  2.670213814177E+01
  2.666185160050E+01  2.661976991599E+01  2.657011988585E+01  2.652052623601E+01
  2.646340810651E+01  2.640925663988E+01  2.634836894001E+01  2.627992475420E+01
  2.620300871102E+01  2.613469433081E+01  2.605973227068E+01  2.597749681997E+01
  2.588730781729E+01  2.578842685982E+01  2.568005346196E+01  2.559202538900E+01
  2.549778083167E+01  2.539690581924E+01  2.528896266228E+01  2.517348920452E+01
  2.504999815987E+01  2.491797655908E+01  2.477688533444E+01  2.462615907508E+01
  2.446520599027E+01  2.429340812331E+01  2.417253453305E+01  2.404635863451E+01
  2.391467881432E+01  2.377728891087E+01  2.363397845645E+01  2.348453296817E+01
  2.332873429232E+01  2.316636100715E+01  2.299718888952E+01  2.282099145070E+01
  2.263754054749E+01  2.244660707444E+01  2.224796174357E+01  2.204137595805E+01
  2.182662278644E+01  2.160347804406E+01  2.137172148824E+01  2.113113813406E+01
  2.088151969695E+01  2.062266616826E+01  2.035438752948E+01  2.007650561031E+01
  1.978885609475E+01  1.949129067858E+01  1.918367938034E+01  1.886591300646E+01
  1.853790576915E+01  1.819959805406E+01  1.785095933153E+01  1.767276500193E+01
  1.749199120306E+01  1.730864367567E+01  1.712273057090E+01  1.693426255499E+01
  1.674325291505E+01  1.654971766592E+01  1.635367565779E+01  1.615514868433E+01
  1.595416159113E+01  1.575074238406E+01  1.554492233738E+01  1.533673610112E+01
  1.512622180745E+01  1.491342117564E+01  1.469837961516E+01  1.448114632659E+01
  1.426177439963E+01  1.404032090799E+01  1.381684700048E+01  1.359141798766E+01
  1.336410342371E+01  1.313497718266E+01  1.290411752844E+01  1.267160717809E+01
  1.243753335737E+01  1.220198784815E+01  1.196506702663E+01  1.172687189184E+01
  1.148750808350E+01  1.124708588839E+01  1.100572023451E+01  1.076353067213E+01
  1.052064134083E+01  1.027718092171E+01  1.003328257403E+01  9.789083855151E+00
  9.544726623193E+00  9.300356921477E+00  9.056124843922E+00  8.812184380667E+00
  8.568693243170E+00  8.325812668084E+00  8.083707199288E+00  7.842544447497E+00
  7.602494826962E+00  7.363731268844E+00  7.126428910961E+00  6.890764763692E+00
  6.656917351966E+00  6.425066333385E+00  6.195392092654E+00  5.968075312700E+00
  5.743296522967E+00  5.521235625607E+00  5.302071400448E+00  5.085980989841E+00
  4.873139364696E+00  4.663718773246E+00  4.457888174294E+00  4.255812656986E+00
  4.057652849328E+00  3.863564317994E+00  3.673696962159E+00  3.488194404398E+00
  3.307193381896E+00  3.130823141499E+00  2.959204842340E+00  2.792450970021E+00
  2.630664766520E+00  2.473939680193E+00  2.322358840401E+00  2.175994561410E+00
  2.034907880338E+00  1.899148133970E+00  1.768752579277E+00  1.643746062457E+00
  1.524140741238E+00  1.409935865038E+00  1.301117617378E+00  1.197659024710E+00
  1.099519935453E+00  1.006647072674E+00  9.189741633578E-01  8.364221466790E-01
  7.588994630810E-01  6.863024252827E-01  6.185156715872E-01  5.554127010563E-01
  4.968564892485E-01  4.427001823012E-01  3.927878661793E-01  3.469554069294E-01
  3.050313567725E-01  2.668379198646E-01  2.321919705632E-01  2.009061160756E-01
  1.727897944540E-01  1.476503980626E-01  1.252944118886E-01  1.055285554279E-01
  8.816091636932E-02  7.300206394010E-02  5.986612959189E-02  4.857184270342E-02
  3.894350918174E-02  3.081192125956E-02  2.401518742647E-02  1.839947229653E-02
  1.381963730480E-02  1.013977443236E-02  7.233626671493E-03  4.984890640305E-03
  3.287398613738E-03  2.045179223657E-03  1.172398156668E-03  5.931823004150E-04
  2.413329088643E-04  5.993542187959E-05  8.755289453481E-07  2.427285490195E-05
  9.784521130786E-05  1.962176474589E-04  3.001915017888E-04  3.959892558251E-04
  4.744911965596E-04  5.304796775512E-04  5.619061256716E-04  5.691948748683E-04
  5.545964417001E-04  5.216010266199E-04  4.744208825438E-04  4.175478054038E-04
  3.553894503184E-04  2.919855524181E-04  2.308025310334E-04  1.746024809172E-04
  1.253803040492E-04  8.436080372829E-05  5.204603111799E-05  2.830210897736E-05
  1.247420312788E-05  3.518290114618E-06  1.388735244148E-07  9.227975724087E-07
  4.460733456146E-06  9.449685044571E-06  1.477186811059E-05  1.954743871341E-05
  2.316065077517E-05  2.526098016655E-05  2.574244197540E-05  2.470564668563E-05
  2.240801375999E-05  1.920794456235E-05  1.550864486345E-05  1.170671322701E-05
  8.149645200303E-06  5.105146133419E-06  2.743722972141E-06  1.134575646569E-06
  2.534700010064E-07  1.717368305457E-10  2.222539885836E-07  7.417230842406E-07
  1.380957531196E-06  1.984898055127E-06  2.437191738821E-06  2.668975143333E-06
  2.660050238114E-06  2.433225515720E-06  2.043434638173E-06  1.563804255800E-06
  1.071059111162E-06  6.325128471784E-07  2.964347461783E-07  8.688942168639E-08
  3.335298227776E-09  0.000000000000E+00  0.000000000000E+00  0.000000000000E+00
  0.000000000000E+00  0.000000000000E+00  0.000000000000E+00  0.000000000000E+00
  0.000000000000E+00  0.000000000000E+00  0.000000000000E+00  0.000000000000E+00
  0.000000000000E+00  0.000000000000E+00  0.000000000000E+00  0.000000000000E+00
  0.000000000000E+00  0.000000000000E+00  0.000000000000E+00  0.000000000000E+00
  0.000000000000E+00  0.000000000000E+00  0.000000000000E+00  0.000000000000E+00
  0.000000000000E+00  0.000000000000E+00  0.000000000000E+00  0.000000000000E+00
  0.000000000000E+00  0.000000000000E+00  0.000000000000E+00  0.000000000000E+00
  0.000000000000E+00  0.000000000000E+00  0.000000000000E+00  0.000000000000E+00
  0.000000000000E+00  0.000000000000E+00  0.000000000000E+00  0.000000000000E+00
  0.000000000000E+00  0.000000000000E+00  0.000000000000E+00  0.000000000000E+00
  0.000000000000E+00  0.000000000000E+00
</data>
</radfunc>
</pseudocore-charge>
<semilocal-potentials set="lj">
<slps n="4" l="s" j="0.5" rc="1.60520203274" eref="-1.76139104060">
<radfunc>
<data npts="290">
  5.087177063927E+01  5.083604260714E+01  5.072945275152E+01  5.055233375327E+01
  5.030754088141E+01  4.998822761890E+01  4.958542996049E+01  4.912982589186E+01
  4.862459252929E+01  4.804462155845E+01  4.740248894883E+01  4.671808543927E+01
  4.590919436839E+01  4.508498482596E+01  4.413872109700E+01  4.322066792861E+01
  4.219543746409E+01  4.125377233658E+01  4.022854037375E+01  3.911639765215E+01
  3.791475143535E+01  3.688784659021E+01  3.580225225584E+01  3.465816679919E+01
  3.345637402380E+01  3.219829364261E+01  3.088602178169E+01  2.986791230921E+01
  2.882232627349E+01  2.775093571015E+01  2.665563475573E+01  2.553853188836E+01
  2.440193850878E+01  2.324835388717E+01  2.208044660777E+01  2.090103275340E+01
  1.971305117862E+01  1.851953632059E+01  1.772231519049E+01  1.692494122127E+01
  1.612834640669E+01  1.533346165754E+01  1.454121270790E+01  1.375251608342E+01
  1.296827517075E+01  1.218937642590E+01  1.141668575664E+01  1.065104511209E+01
  9.893269308693E+00  9.144143118850E+00  8.404418644278E+00  7.674812992094E+00
  6.956006267509E+00  6.248639892658E+00  5.553315256890E+00  4.870592699726E+00
  4.200990823782E+00  3.544986131272E+00  2.903012974357E+00  2.275463806589E+00
  1.662689720026E+00  1.065001250360E+00  4.826694304962E-01 -8.407292845487E-02
 -6.350297509376E-01 -1.170040028422E+00 -1.688975991991E+00 -1.942384786616E+00
 -2.191741149648E+00 -2.437037566197E+00 -2.678268211852E+00 -2.915428883372E+00
 -3.148516928518E+00 -3.377531175214E+00 -3.602471860186E+00 -3.823340557253E+00
 -4.040140105427E+00 -4.252874536983E+00 -4.461549005636E+00 -4.666169714988E+00
 -4.866743847369E+00 -5.063279493211E+00 -5.255785581086E+00 -5.444271808517E+00
 -5.628748573682E+00 -5.809226908104E+00 -5.985718410427E+00 -6.158235181355E+00
 -6.326789759828E+00 -6.491395060498E+00 -6.652064312543E+00 -6.808810999873E+00
 -6.961648802742E+00 -7.110591540761E+00 -7.255653117369E+00 -7.396847465700E+00
 -7.534188495805E+00 -7.667690043313E+00 -7.797365819391E+00 -7.923229361990E+00
 -8.045293988386E+00 -8.163572748945E+00 -8.278078382095E+00 -8.388823270502E+00
 -8.495819398442E+00 -8.599078310398E+00 -8.698611070931E+00 -8.794428225900E+00
 -8.886539765131E+00 -8.974955086700E+00 -9.059682962999E+00 -9.140731508803E+00
 -9.218108151623E+00 -9.291819604634E+00 -9.361871842535E+00 -9.428270080713E+00
 -9.491018758151E+00 -9.550121524523E+00 -9.605581231957E+00 -9.657399931990E+00
 -9.705578878226E+00 -9.750118535260E+00 -9.791018594414E+00 -9.828277996858E+00
 -9.861894964681E+00 -9.891867040499E+00 -9.918191136153E+00 -9.940863591115E+00
 -9.959880241153E+00 -9.975236497899E+00 -9.986927439939E+00 -9.994947916124E+00
 -9.999292661846E+00 -9.999956429142E+00 -9.996934131597E+00 -9.990221005191E+00
 -9.979812786423E+00 -9.965705909313E+00 -9.947897723123E+00 -9.926386732991E+00
 -9.901172865993E+00 -9.872257765528E+00 -9.839645117299E+00 -9.803341010543E+00
 -9.763354338527E+00 -9.719697242674E+00 -9.672385604980E+00 -9.621439593606E+00
 -9.566884266722E+00 -9.508750239726E+00 -9.447074420952E+00 -9.381900820804E+00
 -9.313281438936E+00 -9.241277233590E+00 -9.165959176461E+00 -9.087409395419E+00