<?xml version="1.0" encoding="UTF-8" ?>
<psml version="1.1" energy_unit="hartree" length_unit="bohr"
 uuid="1220b2d0-514b-11e8-673e-64b57ba4d554"
 xmlns="http://esl.cecam.org/PSML/ns/1.1">
<provenance creator="ONCVPSP-3.3.0+psml-3.3.0-73 (fully-relativistic)"
 date="2018-05-06">
<annotation action="semilocal-pseudopotential-generation"
 action-cont="projectors-generation" />
<input-file name="oncvpsp-input">
<![CDATA[# atsym z nc nv iexc psfile
Sb 51 8 3 -116133 both
# n l f
1 0 2.0
2 0 2.0
2 1 6.0
3 0 2.0
3 1 6.0
3 2 10.0
4 0 2.0
4 1 6.0
4 2 10.0
5 0 2.0
5 1 3.0
# lmax
2
# l rc ep ncon nbas qcut
0 1.8 0.0 4 7 3.2
1 2.1 0.0 4 7 4.6
2 1.8 0.0 4 7 9.2
# lloc lpopt rc5 dvloc0
4 5 1.6 0.0
# l nproj debl
0 2 4.5
1 2 3.0
2 2 1.6
# icmod fcfact
3 5 1.41
# epsh1 epsh2 depsh
-12.0 12.0 0.02
# rlmax drl
6.0 0.01
 0
]]>
</input-file>
</provenance>
<pseudo-atom-spec atomic-label="Sb" atomic-number="51" z-pseudo="15"
 flavor="Hamann&apos;s oncvpsp" relativity="dirac" spin-dft="no"
 core-corrections="yes">
<annotation pseudo-energy="-80.1426135095" />
<exchange-correlation>
<annotation oncvpsp-xc-code="-116133" oncvpsp-xc-type="libxc-interface" />
<libxc-info number-of-functionals="2">
<functional name="Perdew, Burke &amp; Ernzerhof SOL (GGA)" type="exchange"
 id="116" />
<functional name="Perdew, Burke &amp; Ernzerhof SOL (GGA)" type="correlation"
 id="133" />
</libxc-info>
</exchange-correlation>
<valence-configuration total-valence-charge="15">
<shell n="4" l="d" occupation="10" />
<shell n="5" l="s" occupation="2" />
<shell n="5" l="p" occupation="3" />
</valence-configuration>
</pseudo-atom-spec>
<grid npts="457">
<annotation type="sampled from oncvpsp log grid"
 recipe="r(i:1..N) = r1*exp(a*(i-1)) + r=0; resampled"
 recipe-cont="r1: scale; a: step" scale="0.980392156863E-05"
 step="0.119285708653E-01" delta="0.500000000000E-02" rmax="43.9721684583" />
<grid-data>
  0.000000000000E+00  5.021204018428E-03  1.002946097687E-02  1.504579076758E-02
  2.027345795207E-02  2.543065629312E-02  3.077838077958E-02  3.594118822007E-02
  4.098057695047E-02  4.617247910357E-02  5.140528910190E-02  5.655251270478E-02
  6.221512900910E-02  6.763314664665E-02  7.265117934131E-02  7.804152433212E-02
  8.383180528246E-02  8.898388872515E-02  9.445260573801E-02  1.002574157919E-01
  1.064189742860E-01  1.116197688201E-01  1.170747310341E-01  1.227962823396E-01
  1.287974511941E-01  1.350919027679E-01  1.416939700613E-01  1.468564096257E-01
  1.522069361091E-01  1.577524022190E-01  1.634999103328E-01  1.694568215939E-01
  1.756307653396E-01  1.820296488724E-01  1.886616675873E-01  1.955353154683E-01
  2.026593959664E-01  2.100430332757E-01  2.151143122711E-01  2.203080322266E-01
  2.256271493567E-01  2.310746912507E-01  2.366537585963E-01  2.423675269438E-01
  2.482192485144E-01  2.542122540505E-01  2.603499547123E-01  2.666358440189E-01
  2.730734998369E-01  2.796665864169E-01  2.864188564794E-01  2.933341533502E-01
  3.004164131487E-01  3.076696670278E-01  3.150980434685E-01  3.227057706300E-01
  3.304971787561E-01  3.384767026400E-01  3.466488841485E-01  3.550183748074E-01
  3.635899384487E-01  3.723684539226E-01  3.813589178741E-01  3.905664475873E-01
  3.999962838978E-01  4.096537941763E-01  4.195444753829E-01  4.245790090875E-01
  4.296739571965E-01  4.348300446829E-01  4.400480052191E-01  4.453285812817E-01
  4.506725242571E-01  4.560805945481E-01  4.615535616827E-01  4.670922044229E-01
  4.726973108760E-01  4.783696786065E-01  4.841101147498E-01  4.899194361268E-01
  4.957984693603E-01  5.017480509926E-01  5.077690276045E-01  5.138622559358E-01
  5.200286030070E-01  5.262689462431E-01  5.325841735980E-01  5.389751836812E-01
  5.454428858854E-01  5.519882005160E-01  5.586120589222E-01  5.653154036293E-01
  5.720991884728E-01  5.789643787345E-01  5.859119512793E-01  5.929428946946E-01
  6.000582094310E-01  6.072589079442E-01  6.145460148395E-01  6.219205670176E-01
  6.293836138218E-01  6.369362171876E-01  6.445794517939E-01  6.523144052154E-01
  6.601421780780E-01  6.680638842149E-01  6.760806508255E-01  6.841936186354E-01
  6.924039420590E-01  7.007127893637E-01  7.091213428361E-01  7.176307989501E-01
  7.262423685375E-01  7.349572769600E-01  7.437767642835E-01  7.527020854549E-01
  7.617345104804E-01  7.708753246061E-01  7.801258285014E-01  7.894873384434E-01
  7.989611865048E-01  8.085487207428E-01  8.182513053917E-01  8.280703210564E-01
  8.380071649091E-01  8.480632508880E-01  8.582400098987E-01  8.685388900175E-01
  8.789613566977E-01  8.895088929780E-01  9.001829996938E-01  9.109851956901E-01
  9.219170180384E-01  9.329800222548E-01  9.441757825219E-01  9.555058919122E-01
  9.669719626151E-01  9.785756261665E-01  9.903185336805E-01  1.002202356085E+00
  1.014228784358E+00  1.026399529770E+00  1.038716324127E+00  1.051180920017E+00
  1.063795091057E+00  1.076560632150E+00  1.089479359735E+00  1.102553112052E+00
  1.115783749397E+00  1.129173154390E+00  1.142723232242E+00  1.156435911029E+00
  1.170313141962E+00  1.184356899665E+00  1.198569182461E+00  1.212952012651E+00
  1.227507436802E+00  1.242237526044E+00  1.257144376357E+00  1.272230108873E+00
  1.287496870179E+00  1.302946832621E+00  1.318582194613E+00  1.334405180948E+00
  1.350418043120E+00  1.366623059637E+00  1.383022536353E+00  1.399618806789E+00
  1.416414232470E+00  1.433411203260E+00  1.450612137699E+00  1.468019483352E+00
  1.485635717152E+00  1.503463345758E+00  1.521504905907E+00  1.539762964778E+00
  1.558240120355E+00  1.576939001799E+00  1.595862269821E+00  1.615012617059E+00
  1.634392768463E+00  1.654005481685E+00  1.673853547465E+00  1.693939790035E+00
  1.714267067515E+00  1.734838272325E+00  1.755656331593E+00  1.776724207572E+00
  1.798044898063E+00  1.819621436840E+00  1.841456894082E+00  1.863554376811E+00
  1.885917029333E+00  1.908548033685E+00  1.931450610089E+00  1.954628017410E+00
  1.978083553619E+00  2.001820556262E+00  2.025842402938E+00  2.050152511773E+00
  2.074754341914E+00  2.099651394017E+00  2.124847210745E+00  2.150345377274E+00
  2.176149521801E+00  2.202263316063E+00  2.228690475856E+00  2.255434761566E+00
  2.282499978705E+00  2.309889978449E+00  2.337608658191E+00  2.365659962089E+00
  2.394047881634E+00  2.422776456214E+00  2.451849773688E+00  2.481271970973E+00
  2.511047234624E+00  2.541179801440E+00  2.571673959057E+00  2.602534046566E+00
  2.633764455124E+00  2.665369628586E+00  2.697354064129E+00  2.729722312899E+00
  2.762478980653E+00  2.795628728421E+00  2.829176273162E+00  2.863126388440E+00
  2.897483905101E+00  2.932253711963E+00  2.967440756506E+00  3.003050045584E+00
  3.039086646131E+00  3.075555685885E+00  3.112462354115E+00  3.149811902365E+00
  3.187609645193E+00  3.225860960936E+00  3.264571292467E+00  3.303746147976E+00
  3.343391101752E+00  3.383511794973E+00  3.424113936513E+00  3.465203303751E+00
  3.506785743396E+00  3.548867172317E+00  3.591453578385E+00  3.634551021325E+00
  3.678165633581E+00  3.722303621184E+00  3.766971264638E+00  3.812174919814E+00
  3.857921018852E+00  3.904216071078E+00  3.951066663931E+00  3.998479463898E+00
  4.046461217465E+00  4.095018752074E+00  4.144158977099E+00  4.193888884824E+00
  4.244215551442E+00  4.295146138060E+00  4.346687891716E+00  4.398848146417E+00
  4.451634324174E+00  4.505053936064E+00  4.559114583297E+00  4.613823958296E+00
  4.669189845796E+00  4.725220123945E+00  4.781922765433E+00  4.839305838618E+00
  4.897377508681E+00  4.956146038786E+00  5.015619791251E+00  5.075807228746E+00
  5.136716915491E+00  5.198357518477E+00  5.260737808699E+00  5.323866662403E+00
  5.387753062352E+00  5.452406099100E+00  5.517834972289E+00  5.584048991957E+00
  5.651057579860E+00  5.718870270818E+00  5.787496714068E+00  5.856946674637E+00
  5.927230034733E+00  5.998356795150E+00  6.070337076691E+00  6.143181121612E+00
  6.216899295071E+00  6.291502086612E+00  6.367000111651E+00  6.443404112991E+00
  6.520724962347E+00  6.598973661895E+00  6.678161345838E+00  6.758299281988E+00
  6.839398873372E+00  6.921471659852E+00  7.004529319770E+00  7.088583671608E+00
  7.173646675667E+00  7.259730435775E+00  7.346847201004E+00  7.435009367416E+00
  7.524229479825E+00  7.614520233583E+00  7.705894476386E+00  7.798365210103E+00
  7.891945592624E+00  7.986648939736E+00  8.082488727012E+00  8.179478591737E+00
  8.277632334837E+00  8.376963922855E+00  8.477487489930E+00  8.579217339809E+00
  8.682167947887E+00  8.786353963261E+00  8.891790210820E+00  8.998491693350E+00
  9.106473593670E+00  9.215751276794E+00  9.326340292116E+00  9.438256375621E+00
  9.551515452129E+00  9.666133637554E+00  9.782127241205E+00  9.899512768099E+00
  1.001830692132E+01  1.013852660437E+01  1.026018892362E+01  1.038331119071E+01
  1.050791092500E+01  1.063400585610E+01  1.076161392637E+01  1.089075329349E+01
  1.102144233301E+01  1.115369964100E+01  1.128754403670E+01  1.142299456514E+01
  1.156007049992E+01  1.169879134592E+01  1.183917684207E+01  1.198124696417E+01
  1.212502192774E+01  1.227052219088E+01  1.241776845717E+01  1.256678167865E+01
  1.271758305880E+01  1.287019405550E+01  1.302463638417E+01  1.318093202078E+01
  1.333910320503E+01  1.349917244349E+01  1.366116251281E+01  1.382509646296E+01
  1.399099762052E+01  1.415888959197E+01  1.432879626707E+01  1.450074182227E+01
  1.467475072414E+01  1.485084773283E+01  1.502905790562E+01  1.520940660049E+01
  1.539191947970E+01  1.557662251345E+01  1.576354198362E+01  1.595270448742E+01
  1.614413694127E+01  1.633786658456E+01  1.653392098358E+01  1.673232803538E+01
  1.693311597181E+01  1.713631336347E+01  1.734194912383E+01  1.755005251332E+01
  1.776065314347E+01  1.797378098120E+01  1.818946635297E+01  1.840773994921E+01
  1.862863282860E+01  1.885217642254E+01  1.907840253961E+01  1.930734337009E+01
  1.953903149053E+01  1.977349986841E+01  2.001078186683E+01  2.025091124924E+01
  2.049392218423E+01  2.073984925044E+01  2.098872744144E+01  2.124059217074E+01
  2.149547927679E+01  2.175342502811E+01  2.201446612845E+01  2.227863972199E+01
  2.254598339865E+01  2.281653519944E+01  2.309033362183E+01  2.336741762529E+01
  2.364782663680E+01  2.393160055644E+01  2.421877976311E+01  2.450940512027E+01
  2.480351798172E+01  2.510116019750E+01  2.540237411987E+01  2.570720260930E+01
  2.601568904062E+01  2.632787730910E+01  2.664381183681E+01  2.696353757885E+01
  2.728710002980E+01  2.761454523016E+01  2.794591977292E+01  2.828127081020E+01
  2.862064605992E+01  2.896409381264E+01  2.931166293839E+01  2.966340289365E+01
  3.001936372837E+01  3.037959609311E+01  3.074415124623E+01  3.111308106119E+01
  3.148643803392E+01  3.186427529033E+01  3.224664659381E+01  3.263360635294E+01
  3.302520962917E+01  3.342151214472E+01  3.382257029046E+01  3.422844113394E+01
  3.463918242755E+01  3.505485261668E+01  3.547551084808E+01  3.590121697826E+01
  3.633203158200E+01  3.676801596098E+01  3.720923215251E+01  3.765574293834E+01
  3.810761185360E+01  3.856490319585E+01  3.902768203420E+01  3.949601421861E+01
  3.996996638923E+01  4.044960598590E+01  4.093500125773E+01  4.142622127283E+01
  4.192333592810E+01  4.242641595924E+01  4.293553295075E+01  4.345075934616E+01
  4.397216845831E+01
</grid-data>
</grid>
<valence-charge total-charge="15" is-unscreening-charge="yes"
 rescaled-to-z-pseudo="no">
<radfunc>
<data npts="457">
  4.323265004291E-03  4.327199334404E-03  4.342732970270E-03  4.381229533827E-03
  4.466178936824E-03  4.623684575891E-03  4.904150988183E-03  5.334894592216E-03
  5.958729620802E-03  6.872402698076E-03  8.142090765761E-03  9.809736367388E-03
  1.222388844741E-02  1.520966294483E-02  1.866462906806E-02  2.322719618367E-02
  2.925131119483E-02  3.571950162831E-02  4.386786554041E-02  5.412804153978E-02
  6.703980730244E-02  7.972585270127E-02  9.495647075600E-02  1.132309916014E-01
  1.351427237422E-01  1.613952911682E-01  1.928213587452E-01  2.203710481442E-01
  2.518580799528E-01  2.878217234827E-01  3.288694254399E-01  3.756840696790E-01
  4.290316751099E-01  4.897694654967E-01  5.588542113245E-01  6.373507020742E-01
  7.264401558101E-01  8.274283105508E-01  9.020684798830E-01  9.830930118593E-01
  1.070989864570E+00  1.166275536762E+00  1.269495358347E+00  1.381223519060E+00
  1.502062782952E+00  1.632643830294E+00  1.773624162087E+00  1.925686495837E+00
  2.089536574646E+00  2.265900305120E+00  2.455520133378E+00  2.659150562710E+00
  2.877552711524E+00  3.111487806460E+00  3.361709503397E+00  3.628954928960E+00
  3.913934337668E+00  4.217319285637E+00  4.539729231541E+00  4.881716490037E+00
  5.243749483001E+00  5.626194260557E+00  6.029294297903E+00  6.453148616306E+00
  6.897688328159E+00  7.362651767422E+00  7.847558438704E+00  8.097273882912E+00
  8.351682100953E+00  8.610649422549E+00  8.874023395162E+00  9.141631940880E+00
  9.413282529195E+00  9.688761371741E+00  9.967832645534E+00  1.025023775177E+01
  1.053569461769E+01  1.082389704958E+01  1.111451414533E+01  1.140718977565E+01
  1.170154214311E+01  1.199716342909E+01  1.229361953857E+01  1.259044995331E+01
  1.288716770433E+01  1.318325947427E+01  1.347818584112E+01  1.377138167398E+01
  1.406225669215E+01  1.435019619821E+01  1.463456199562E+01  1.491469350088E+01
  1.518990905968E+01  1.545950747574E+01  1.572276976005E+01  1.597896110714E+01
  1.622733310371E+01  1.646712617336E+01  1.669757225965E+01  1.691789774741E+01
  1.712732662061E+01  1.732508385216E+01  1.751039901908E+01  1.768251013315E+01
  1.784066767467E+01  1.798413881352E+01  1.811221179883E+01  1.822420049479E+01
  1.831944903707E+01  1.839733658059E+01  1.845728210593E+01  1.849874924833E+01
  1.852125110980E+01  1.852435501159E+01  1.850768714157E+01  1.847093704813E+01
  1.841386193017E+01  1.833629067071E+01  1.823812756053E+01  1.811935565732E+01
  1.798003972611E+01  1.782032870700E+01  1.764045765826E+01  1.744074912479E+01
  1.722161388558E+01  1.698355103800E+01  1.672714738173E+01  1.645307607187E+01
  1.616209451744E+01  1.585504150986E+01  1.553283357490E+01  1.519646055137E+01
  1.484698040998E+01  1.448551333716E+01  1.411323511933E+01  1.373136987506E+01
  1.334118219377E+01  1.294396875056E+01  1.254104947782E+01  1.213375838365E+01
  1.172343411649E+01  1.131141038236E+01  1.089900632768E+01  1.048751700462E+01
  1.007820403842E+01  9.672286616429E+00  9.270932916417E+00  8.875252087830E+00
  8.486286892657E+00  8.105007104013E+00  7.732303749408E+00  7.368984272687E+00
  7.015768673920E+00  6.673286670321E+00  6.342075904024E+00  6.022581204626E+00
  5.715154896198E+00  5.420058120526E+00  5.137463131023E+00  4.867456495589E+00
  4.610043132073E+00  4.365151087244E+00  4.132636959737E+00  3.912291859386E+00
  3.703847790039E+00  3.506984340226E+00  3.321335566123E+00  3.146496953801E+00
  2.982032352761E+00  2.827480779776E+00  2.682363001001E+00  2.546187810521E+00
  2.418457934866E+00  2.298675504973E+00  2.186347049255E+00  2.080987973606E+00
  1.982126505872E+00  1.889307093430E+00  1.802093252755E+00  1.720069879117E+00
  1.642845032765E+00  1.570051224972E+00  1.501346233235E+00  1.436413479689E+00
  1.374962010667E+00  1.316726118088E+00  1.261464645094E+00  1.208960019155E+00
  1.159017055876E+00  1.111461575872E+00  1.066138217252E+00  1.022905660561E+00
  9.816309135404E-01  9.421890249366E-01  9.044631496127E-01  8.683442898564E-01
  8.337311430880E-01  8.005299076112E-01  7.686540708267E-01  7.380241801089E-01
  7.085675982863E-01  6.802182456088E-01  6.529163299775E-01  6.266079619310E-01
  6.012443217927E-01  5.767805773797E-01  5.531754562614E-01  5.303911095963E-01
  5.083927741534E-01  4.871485248162E-01  4.666290265317E-01  4.468072999129E-01
  4.276584995944E-01  4.091597054907E-01  3.912897270161E-01  3.740289202237E-01
  3.573590177337E-01  3.412629712431E-01  3.257248063459E-01  3.107294893274E-01
  2.962628055525E-01  2.823112490206E-01  2.688619226271E-01  2.559024486394E-01
  2.434208888762E-01  2.314056740684E-01  2.198455418146E-01  2.087294826735E-01
  1.980466937522E-01  1.877865392878E-01  1.779385176686E-01  1.684922343630E-01
  1.594373802329E-01  1.507637147259E-01  1.424610534557E-01  1.345192597007E-01
  1.269282393698E-01  1.196779390088E-01  1.127583464434E-01  1.061594936764E-01
  9.987146168626E-02  9.388438679489E-02  8.818846830076E-02  8.277397709717E-02
  7.763126502117E-02  7.275077470502E-02  6.812304972292E-02  6.373874485263E-02
  5.958863629065E-02  5.566363169932E-02  5.195477994141E-02  4.845328043435E-02
  4.515049203393E-02  4.203794138944E-02  3.910733072554E-02  3.635054501903E-02
  3.375965855076E-02  3.132694082245E-02  2.904486183587E-02  2.690609673797E-02
  2.490352983939E-02  2.303025801690E-02  2.127959351091E-02  1.964506613033E-02
  1.812042487592E-02  1.669963899290E-02  1.537689846272E-02  1.414661394296E-02
  1.300341616468E-02  1.194215479624E-02  1.095789678437E-02  1.004592418453E-02
  9.201731495132E-03  8.421022513342E-03  7.699706733061E-03  7.033895309507E-03
  6.419896618172E-03  5.854211439325E-03  5.333527802273E-03  4.854715526168E-03
  4.414820496206E-03  4.011058715496E-03  3.640810173635E-03  3.301612573193E-03
  2.991154954769E-03  2.707271260250E-03  2.447933872267E-03  2.211247165807E-03
  1.995441105536E-03  1.798864919675E-03  1.619980878335E-03  1.457358201205E-03
  1.309667116346E-03  1.175673088708E-03  1.054231233962E-03  9.442809302082E-04
  8.448406373120E-04  7.550029309426E-04  6.739297558885E-04  6.008479009639E-04
  5.350446957608E-04  4.758639276852E-04  4.227019761262E-04  3.750041592558E-04
  3.322612878298E-04  2.940064194538E-04  2.598118060752E-04  2.292860269528E-04
  2.020712990159E-04  1.778409563392E-04  1.562970904104E-04  1.371683429233E-04
  1.202078429838E-04  1.051912808365E-04  9.191511049718E-05  8.019487398819E-05
  6.986364020987E-05  6.077055182460E-05  5.277947387652E-05  4.576773820644E-05
  3.962497804559E-05  3.425204747883E-05  2.956002075500E-05  2.546926668970E-05
  2.190859365260E-05  1.881446085993E-05  1.613025190335E-05  1.380560664146E-05
  1.179580776214E-05  1.006121849366E-05  8.566768103369E-06  7.281481975480E-06
  6.178053206087E-06  5.232452795391E-06  4.423575654894E-06  3.732919782189E-06
  3.144296088245E-06  2.643566492200E-06  2.218408026717E-06  1.858100823026E-06
  1.553337968616E-06  1.296055352099E-06  1.079279728635E-06  8.969933552552E-07
  7.440136581404E-07  6.158865030024E-07  5.087917449735E-07  4.194598354942E-07
  3.450983603971E-07  2.833274755228E-07  2.321232936117E-07  1.897683588161E-07
  1.548084228999E-07  1.260148100464E-07  1.023517252017E-07  8.294792412838E-08
  6.707222192714E-08  5.411237084957E-08  4.355688793281E-08  3.497945851941E-08
  2.802558328435E-08  2.240117418749E-08  1.786283902234E-08  1.420962516639E-08
  1.127602097978E-08  8.926038271097E-09  7.048221573347E-09  5.551449862654E-09
  4.361414014989E-09  3.417668929282E-09  2.671173037403E-09  2.082240049629E-09
  1.618838414927E-09  1.255183263510E-09  9.705736883018E-10  7.484352443034E-10
  5.755336217823E-10  4.413306910627E-10  3.374586239097E-10  2.572916596255E-10
  1.955983844694E-10  1.482602038017E-10  1.120440723965E-10  8.441956734306E-11
  6.341209079590E-11  4.748542139417E-11  3.544803273263E-11  2.637859914185E-11
  1.956694304094E-11  1.446737009082E-11  1.066191057395E-11  7.831456999607E-12
  5.733175262181E-12  4.182883730310E-12  3.041353277154E-12  2.203691510000E-12
  1.591144776428E-12  1.144789011367E-12  8.206910797245E-13  5.862109057627E-13
  4.171854644954E-13  2.957920313071E-13  2.089327339033E-13  1.470177131791E-13
  1.030519448856E-13  7.195252169872E-14  5.004017653476E-14  3.466203600802E-14
  2.391282594853E-14  1.642964762557E-14  1.124151277642E-14  7.659471683364E-15
  5.196710611025E-15  3.510684115432E-15  2.361380894182E-15  1.581352513089E-15
  1.054281787783E-15  6.997240449678E-16  4.622909711918E-16  3.040175703530E-16
  1.989997185039E-16  1.296439619217E-16  8.405691140222E-17  5.423639361729E-17
  3.482403202163E-17  2.224910240245E-17  1.414376813071E-17  8.945623783344E-18
  5.628884624505E-18  3.523492011727E-18  2.193997491928E-18  1.358886419059E-18
  8.371172867895E-19  5.128815745113E-19  3.124975206453E-19  1.893412604182E-19
  1.093236187972E-19  6.557179917588E-20  3.910093397942E-20  2.317878190414E-20
  0.000000000000E+00  0.000000000000E+00  0.000000000000E+00  0.000000000000E+00
  0.000000000000E+00  0.000000000000E+00  0.000000000000E+00  0.000000000000E+00
  0.000000000000E+00  0.000000000000E+00  0.000000000000E+00  0.000000000000E+00
  0.000000000000E+00  0.000000000000E+00  0.000000000000E+00  0.000000000000E+00
  0.000000000000E+00
</data>
</radfunc>
</valence-charge>
<pseudocore-charge matching-radius="0.838007164909"
 number-of-continuous-derivatives="4">
<annotation model-charge-form="Teter function with specified parameters" />
<radfunc>
<data npts="291">
  8.779959499198E+01  8.779458568622E+01  8.777961099729E+01  8.775462743691E+01
  8.771796684412E+01  8.767118732134E+01  8.761156415739E+01  8.754328594559E+01
  8.746650859271E+01  8.737696624718E+01  8.727602657648E+01  8.716629989055E+01
  8.703367194457E+01  8.689513588280E+01  8.675672163146E+01  8.659726273331E+01
  8.641360501805E+01  8.623948107250E+01  8.604369067263E+01  8.582359390906E+01
  8.557624429404E+01  8.535654752014E+01  8.511546255795E+01  8.485097426047E+01
  8.456089169239E+01  8.424283579614E+01  8.389422686677E+01  8.361104800920E+01
  8.330785575776E+01  8.298331498560E+01  8.263601368886E+01  8.226446049391E+01
  8.186708242687E+01  8.144222302281E+01  8.098814086445E+01  8.050300865376E+01
  7.998491293500E+01  7.943185460422E+01  7.904269998141E+01  7.863644461553E+01
  7.821243525745E+01  7.777000358618E+01  7.730846695129E+01  7.682712926958E+01
  7.632528209127E+01  7.580220585154E+01  7.525717132460E+01  7.468944129812E+01
  7.409827248673E+01  7.348291770411E+01  7.284262831411E+01  7.217665698164E+01
  7.148426074470E+01  7.076470442951E+01  7.001726443009E+01  6.924123287443E+01
  6.843592219795E+01  6.760067014499E+01  6.673484521705E+01  6.583785258541E+01
  6.490914048280E+01  6.394820708629E+01  6.295460789958E+01  6.192796363821E+01
  6.086796861596E+01  5.977439962385E+01  5.864712528555E+01  5.807083507165E+01
  5.748611586420E+01  5.689298150457E+01  5.629145348502E+01  5.568156128749E+01
  5.506334272664E+01  5.443684429660E+01  5.380212152073E+01  5.315923930367E+01
  5.250827228474E+01  5.184930519205E+01  5.118243319604E+01  5.050776226169E+01
  4.982540949807E+01  4.913550350408E+01  4.843818470919E+01  4.773360570756E+01
  4.702193158431E+01  4.630334023212E+01  4.557802265676E+01  4.484618326954E+01
  4.410804016493E+01  4.336382538148E+01  4.261378514377E+01  4.185818008348E+01
  4.109728543723E+01  4.033139121881E+01  3.956080236359E+01  3.878583884238E+01
  3.800683574242E+01  3.722414331267E+01  3.643812697086E+01  3.564916726950E+01
  3.485765981810E+01  3.406401515883E+01  3.326865859275E+01  3.247202995387E+01
  3.167458332824E+01  3.087678671534E+01  3.007912162903E+01  2.928208263558E+01
  2.848617682617E+01  2.769192322163E+01  2.689985210706E+01  2.611050429458E+01
  2.532443031214E+01  2.454218951711E+01  2.376434913332E+01  2.299148321068E+01
  2.222417150681E+01  2.146299829061E+01  2.070855106808E+01  1.996141923116E+01
  1.922219263094E+01  1.849146007719E+01  1.776980776661E+01  1.705781764301E+01
  1.635606569329E+01  1.566512018360E+01  1.498553984117E+01  1.431787198767E+01
  1.366265063111E+01  1.302039452382E+01  1.239160519507E+01  1.177676496764E+01
  1.117633496843E+01  1.059075314409E+01  1.002043229349E+01  9.465758129330E+00
  8.927087382315E+00  8.404745961649E+00  7.899027186279E+00  7.410190101892E+00
  6.938457898973E+00  6.484016447566E+00  6.047012964517E+00  5.627554829003E+00
  5.225708561982E+00  4.841498984897E+00  4.474908572440E+00  4.125877013472E+00
  3.794300993271E+00  3.480034209138E+00  3.182887630005E+00  2.902630009084E+00
  2.638988656758E+00  2.391650478834E+00  2.160263282979E+00  1.944437353650E+00
  1.743747293105E+00  1.557734123203E+00  1.385907639652E+00  1.227749007200E+00
  1.082713581027E+00  9.502339363004E-01  8.297230846095E-01  7.205778527468E-01
  6.221823962581E-01  5.339118172552E-01  4.551358533451E-01  3.852226021944E-01
  3.235422443004E-01  2.694707250443E-01  2.223933561277E-01  1.817082960892E-01
  1.468298698336E-01  1.171916880095E-01  9.224952868981E-02  7.148394615754E-02
  5.440257468493E-02  4.054209900683E-02  2.946986769982E-02  2.078513083749E-02
  1.411988903026E-02  9.139347183988E-03  5.541972913997E-03  3.059166398603E-03
  1.454555400599E-03  5.229360616560E-04  8.888670873506E-05  5.088120688826E-06
  1.503893036397E-04  4.276626357337E-04  7.614960969469E-04  1.095773046872E-03
  1.391191526936E-03  1.622775249185E-03  1.777427235805E-03  1.851574479791E-03
  1.848948043918E-03  1.778537789287E-03  1.652754565051E-03  1.485825386425E-03
  1.292439114011E-03  1.086651698850E-03  8.810514800905E-04  6.861766403183E-04
  5.101690674428E-04  3.586418613594E-04  2.347318520226E-04  1.393040138157E-04
  7.127176164970E-05  2.799591751472E-05  5.725679930350E-06  4.716114282619E-08
  6.308834884211E-06  1.999833031145E-05  3.705110659493E-05  5.407827618223E-05
  6.850779998509E-05  7.864002520519E-05  8.362465872366E-05  8.337138976011E-05
  7.841018834517E-05  6.971959902738E-05  5.854202357938E-05  4.620406806677E-05
  3.395766981453E-05  2.285418585062E-05  1.365927926729E-05  6.811712050511E-06
  2.424498340748E-06  3.227320061550E-07  1.091600832110E-07  1.246515108301E-06
  3.144902576643E-06  5.243176157533E-06  7.075084860083E-06  8.313769700481E-06
  8.791544432737E-06  8.495377251397E-06  7.541653414865E-06  6.136248263264E-06
  4.527384575436E-06  2.959038961037E-06  1.631814898394E-06  6.763942986850E-07
  1.422321485982E-07  0.000000000000E+00  0.000000000000E+00  0.000000000000E+00
  0.000000000000E+00  0.000000000000E+00  0.000000000000E+00  0.000000000000E+00
  0.000000000000E+00  0.000000000000E+00  0.000000000000E+00  0.000000000000E+00
  0.000000000000E+00  0.000000000000E+00  0.000000000000E+00  0.000000000000E+00
  0.000000000000E+00  0.000000000000E+00  0.000000000000E+00  0.000000000000E+00
  0.000000000000E+00  0.000000000000E+00  0.000000000000E+00  0.000000000000E+00
  0.000000000000E+00  0.000000000000E+00  0.000000000000E+00  0.000000000000E+00
  0.000000000000E+00  0.000000000000E+00  0.000000000000E+00  0.000000000000E+00
  0.000000000000E+00  0.000000000000E+00  0.000000000000E+00  0.000000000000E+00
  0.000000000000E+00  0.000000000000E+00  0.000000000000E+00  0.000000000000E+00
  0.000000000000E+00  0.000000000000E+00  0.000000000000E+00  0.000000000000E+00
  0.000000000000E+00  0.000000000000E+00  0.000000000000E+00
</data>
</radfunc>
</pseudocore-charge>
<semilocal-potentials set="scalar_relativistic">
<slps n="5" l="s" rc="1.81962143684">
<radfunc>
<data npts="291">
  2.737968512778E+01  2.736258525120E+01  2.731153671378E+01  2.722659907264E+01
  2.710248286631E+01  2.694500080891E+01  2.674571757165E+01  2.651946085910E+01
  2.626750013842E+01  2.597688814588E+01  2.565339665883E+01  2.530659213264E+01
  2.489399978183E+01  2.447055085674E+01  2.405495567006E+01  2.358519412627E+01
  2.305576133110E+01  2.256493964998E+01  2.202555546819E+01  2.143447403428E+01
  2.078874513605E+01  2.023101524898E+01  1.963542088521E+01  1.900099291421E+01
  1.832701826742E+01  1.761308727291E+01  1.685914142956E+01  1.626761023732E+01
  1.565405688972E+01  1.501893513423E+01  1.436285646605E+01  1.368659709233E+01
  1.299110321518E+01  1.227749437258E+01  1.154706460231E+01  1.080128123161E+01
  1.004178114390E+01  9.270364432039E+00  8.750425358459E+00  8.226670483206E+00
  7.699741062129E+00  7.170302770529E+00  6.639043505128E+00  6.106671009662E+00
  5.573910342856E+00  5.041501209633E+00  4.510195178123E+00  3.980752806382E+00
  3.453940703534E+00  2.930528550424E+00  2.411286104671E+00  1.896980214307E+00
  1.388371862928E+00  8.862132674856E-01  3.912450476034E-01 -9.580651749157E-02
 -5.742321314696E-01 -1.043342013444E+00 -1.502468315015E+00 -1.950967420368E+00
 -2.388222132236E+00 -2.813643750910E+00 -3.226674057812E+00 -3.626787219473E+00
 -4.013491631810E+00 -4.386331728437E+00 -4.744889780146E+00 -4.918693291975E+00
 -5.088787715512E+00 -5.255132295691E+00 -5.417688994764E+00 -5.576422556131E+00
 -5.731300570296E+00 -5.882293543232E+00 -6.029374967367E+00 -6.172521395440E+00
 -6.311712517427E+00 -6.446931240730E+00 -6.578163773792E+00 -6.705399713270E+00
 -6.828632134868E+00 -6.947857687877E+00 -7.063076693447E+00 -7.174293246532E+00
 -7.281515321421E+00 -7.384754880673E+00 -7.484027987223E+00 -7.579354919324E+00
 -7.670760287921E+00 -7.758273155925E+00 -7.841927158768E+00 -7.921760625492E+00
 -7.997816699486E+00 -8.070143457861E+00 -8.138794028278E+00 -8.203826701903E+00
 -8.265305040957E+00 -8.323297979197E+00 -8.377879913395E+00 -8.429130783765E+00
 -8.477136141007E+00 -8.521987197488E+00 -8.563780859825E+00 -8.602619739984E+00
 -8.638612141771E+00 -8.671872019462E+00 -8.702518905141E+00 -8.730677801237E+00
 -8.756479034641E+00 -8.780058068801E+00 -8.801555270224E+00 -8.821115625899E+00
 -8.838888408404E+00 -8.855026785670E+00 -8.869687372810E+00 -8.883029723841E+00
 -8.895215761736E+00 -8.906409145899E+00 -8.916774576937E+00 -8.926477039470E+00
 -8.935680984663E+00 -8.944549455201E+00 -8.953243156492E+00 -8.961919479003E+00
 -8.970731477736E+00 -8.979826816007E+00 -8.989346681730E+00 -8.999424685420E+00
 -9.010185750088E+00 -9.021745003951E+00 -9.034206687577E+00 -9.047663087569E+00
 -9.062193509177E+00 -9.077863300361E+00 -9.094722939699E+00 -9.112807200198E+00
 -9.132134400541E+00 -9.152705754530E+00 -9.174504828554E+00 -9.197497115822E+00
 -9.221629734870E+00 -9.246831258622E+00 -9.273011679004E+00 -9.300062510978E+00
 -9.327857038890E+00 -9.356250707367E+00 -9.385081658707E+00 -9.414171418908E+00
 -9.443325735147E+00 -9.472335568726E+00 -9.500978248996E+00 -9.529018795400E+00
 -9.556211416059E+00 -9.582301191647E+00 -9.607025951920E+00 -9.630118348255E+00