Sb    ONCVPSP-3.3.0  r_core=   2.51105   2.15035   2.60253
51.0000      5.0000      180506    zatom,zion,pspd
8 -116133   2     4   600     0    pspcod,pspxc,lmax,lloc,mmax,r2well
5.99000000  7.00000000  0.00000000    rchrg fchrg qchrg
2     4     4     0    nproj
3     1           extension_switch
4     4     0    nprojso
0                         5.6262192276346D-01  4.8430578536621D+00
1  0.0000000000000D+00  5.1016760260758D-12 -6.9707017935627D-12
2  1.0000000000000D-02 -7.1898297996119D-03  2.2512267809300D-02
3  2.0000000000000D-02 -1.4373243213019D-02  4.5014953771242D-02
4  3.0000000000000D-02 -2.1543843638459D-02  6.7498504468756D-02
5  4.0000000000000D-02 -2.8695273849753D-02  8.9953423099324D-02
6  5.0000000000000D-02 -3.5821235202154D-02  1.1237029716895D-01
7  6.0000000000000D-02 -4.2915506263485D-02  1.3473982545511D-01
8  7.0000000000000D-02 -4.9971960685009D-02  1.5705284400330D-01
9  8.0000000000000D-02 -5.6984584131614D-02  1.7930035092861D-01
10  9.0000000000000D-02 -6.3947490097209D-02  2.0147352980263D-01
11  1.0000000000000D-01 -7.0854934438791D-02  2.2356377141605D-01
12  1.1000000000000D-01 -7.7701328471338D-02  2.4556269371925D-01
13  1.2000000000000D-01 -8.4481250475468D-02  2.6746215975625D-01
14  1.3000000000000D-01 -9.1189455480676D-02  2.8925429342226D-01
15  1.4000000000000D-01 -9.7820883198799D-02  3.1093149289074D-01
16  1.5000000000000D-01 -1.0437066399518D-01  3.3248644157316D-01
17  1.6000000000000D-01 -1.1083412279857D-01  3.5391211649265D-01
18  1.7000000000000D-01 -1.1720678086538D-01  3.7520179397196D-01
19  1.8000000000000D-01 -1.2348435532886D-01  3.9634905255608D-01
20  1.9000000000000D-01 -1.2966275647976D-01  4.1734777311025D-01
21  2.0000000000000D-01 -1.3573808274111D-01  4.3819213605576D-01
22  2.1000000000000D-01 -1.4170661331683D-01  4.5887661572698D-01
23  2.2000000000000D-01 -1.4756479851062D-01  4.7939597185538D-01
24  2.3000000000000D-01 -1.5330924772927D-01  4.9974523820813D-01
25  2.4000000000000D-01 -1.5893671520200D-01  5.1991970843082D-01
26  2.5000000000000D-01 -1.6444408346489D-01  5.3991491916587D-01
27  2.6000000000000D-01 -1.6982834467723D-01  5.5972663053946D-01
28  2.7000000000000D-01 -1.7508657985402D-01  5.7935080413131D-01
29  2.8000000000000D-01 -1.8021593611574D-01  5.9878357856165D-01
30  2.9000000000000D-01 -1.8521360207393D-01  6.1802124284989D-01
31  3.0000000000000D-01 -1.9007678148690D-01  6.3706020771822D-01
32  3.1000000000000D-01 -1.9480266533617D-01  6.5589697503122D-01
33  3.2000000000000D-01 -1.9938840248927D-01  6.7452810557955D-01
34  3.3000000000000D-01 -2.0383106912897D-01  6.9295018543115D-01
35  3.4000000000000D-01 -2.0812763714289D-01  7.1115979108770D-01
36  3.5000000000000D-01 -2.1227494167985D-01  7.2915345369665D-01
37  3.6000000000000D-01 -2.1626964809121D-01  7.4692762258074D-01
38  3.7000000000000D-01 -2.2010821848621D-01  7.6447862835588D-01
39  3.8000000000000D-01 -2.2378687813954D-01  7.8180264591688D-01
40  3.9000000000000D-01 -2.2730158199770D-01  7.9889565757585D-01
41  4.0000000000000D-01 -2.3064798153782D-01  8.1575341664302D-01
42  4.1000000000000D-01 -2.3382139223802D-01  8.3237141174168D-01
43  4.2000000000000D-01 -2.3681676192243D-01  8.4874483214977D-01
44  4.3000000000000D-01 -2.3962864024718D-01  8.6486853445897D-01
45  4.4000000000000D-01 -2.4225114959433D-01  8.8073701083905D-01
46  4.5000000000000D-01 -2.4467795764066D-01  8.9634435918988D-01
47  4.6000000000000D-01 -2.4690225186648D-01  9.1168425545633D-01
48  4.7000000000000D-01 -2.4891671626585D-01  9.2674992837229D-01
49  4.8000000000000D-01 -2.5071351051478D-01  9.4153413688931D-01
50  4.9000000000000D-01 -2.5228425184737D-01  9.5602915053238D-01
51  5.0000000000000D-01 -2.5361999988145D-01  9.7022673291153D-01
52  5.1000000000000D-01 -2.5471124462572D-01  9.8411812860131D-01
53  5.2000000000000D-01 -2.5554789788898D-01  9.9769405358327D-01
54  5.3000000000000D-01 -2.5611928829916D-01  1.0109446894270D+00
55  5.4000000000000D-01 -2.5641416012585D-01  1.0238596813654D+00
56  5.5000000000000D-01 -2.5642067608370D-01  1.0364281403975D+00
57  5.6000000000000D-01 -2.5612642427799D-01  1.0486386495308D+00
58  5.7000000000000D-01 -2.5551842943411D-01  1.0604792742492D+00
59  5.8000000000000D-01 -2.5458316853412D-01  1.0719375772702D+00
60  5.9000000000000D-01 -2.5330659096219D-01  1.0830006376287D+00
61  6.0000000000000D-01 -2.5167414323911D-01  1.0936550740983D+00
62  6.1000000000000D-01 -2.4967079840336D-01  1.1038870729358D+00
63  6.2000000000000D-01 -2.4728109007242D-01  1.1136824199087D+00
64  6.3000000000000D-01 -2.4448915119375D-01  1.1230265365352D+00
65  6.4000000000000D-01 -2.4127875746989D-01  1.1319045204455D+00
66  6.5000000000000D-01 -2.3763337541604D-01  1.1403011897416D+00
67  6.6000000000000D-01 -2.3353621498340D-01  1.1482011312090D+00
68  6.7000000000000D-01 -2.2897028665445D-01  1.1555887522102D+00
69  6.8000000000000D-01 -2.2391846289024D-01  1.1624483360605D+00
70  6.9000000000000D-01 -2.1836354378365D-01  1.1687641006684D+00
71  7.0000000000000D-01 -2.1228832674555D-01  1.1745202601958D+00
72  7.1000000000000D-01 -2.0567568002562D-01  1.1797010894728D+00
73  7.2000000000000D-01 -1.9850861984280D-01  1.1842909908837D+00
74  7.3000000000000D-01 -1.9077039087663D-01  1.1882745634181D+00
75  7.4000000000000D-01 -1.8244454984477D-01  1.1916366735672D+00
76  7.5000000000000D-01 -1.7351505186947D-01  1.1943625277268D+00
77  7.6000000000000D-01 -1.6396633931245D-01  1.1964377457573D+00
78  7.7000000000000D-01 -1.5378343273622D-01  1.1978484353367D+00
79  7.8000000000000D-01 -1.4295202362928D-01  1.1985812667335D+00
80  7.9000000000000D-01 -1.3145856851373D-01  1.1986235476190D+00
81  8.0000000000000D-01 -1.1929038403606D-01  1.1979632975304D+00
82  8.1000000000000D-01 -1.0643574262557D-01  1.1965893215954D+00
83  8.2000000000000D-01 -9.2883968291151D-02  1.1944912831242D+00
84  8.3000000000000D-01 -7.8625532113459D-02  1.1916597746774D+00
85  8.4000000000000D-01 -6.3652146980065D-02  1.1880863872203D+00
86  8.5000000000000D-01 -4.7956861101116D-02  1.1837637769790D+00
87  8.6000000000000D-01 -3.1534149837317D-02  1.1786857296223D+00
88  8.7000000000000D-01 -1.4380005366915D-02  1.1728472213990D+00
89  8.8000000000000D-01  3.5079762839365D-03  1.1662444768774D+00
90  8.9000000000000D-01  2.2130511323090D-02  1.1588750229410D+00
91  9.0000000000000D-01  4.1486547860337D-02  1.1507377387168D+00
92  9.1000000000000D-01  6.1573189630531D-02  1.1418329011218D+00
93  9.2000000000000D-01  8.2385624234326D-02  1.1321622257425D+00
94  9.3000000000000D-01  1.0391705635000D-01  1.1217289027736D+00
95  9.4000000000000D-01  1.2615864635811D-01  1.1105376277724D+00
96  9.5000000000000D-01  1.4909945480724D-01  1.0985946270041D+00
97  9.6000000000000D-01  1.7272639313279D-01  1.0859076771842D+00
98  9.7000000000000D-01  1.9702418102251D-01  1.0724861194443D+00
99  9.8000000000000D-01  2.2197531080183D-01  1.0583408673829D+00
100  9.9000000000000D-01  2.4756001918946D-01  1.0434844090852D+00
101  1.0000000000000D+00  2.7375626674862D-01  1.0279308030304D+00
102  1.0100000000000D+00  3.0053972533241D-01  1.0116956678315D+00
103  1.0200000000000D+00  3.2788377379387D-01  9.9479616578648D-01
104  1.0300000000000D+00  3.5575950219942D-01  9.7725098024744D-01
105  1.0400000000000D+00  3.8413572475305D-01  9.5908028684832D-01
106  1.0500000000000D+00  4.1297900160455D-01  9.4030571866076D-01
107  1.0600000000000D+00  4.4225366967925D-01  9.2095032537922D-01
108  1.0700000000000D+00  4.7192188263105D-01  9.0103852666625D-01
109  1.0800000000000D+00  5.0194365998323D-01  8.8059605981815D-01
110  1.0900000000000D+00  5.3227694548044D-01  8.5964992194137D-01
111  1.1000000000000D+00  5.6287767463897D-01  8.3822830685636D-01
112  1.1100000000000D+00  5.9369985143776D-01  8.1636053697443D-01
113  1.1200000000000D+00  6.2469563405944D-01  7.9407699041489D-01
114  1.1300000000000D+00  6.5581542954163D-01  7.7140902365834D-01
115  1.1400000000000D+00  6.8700799716298D-01  7.4838889005200D-01
116  1.1500000000000D+00  7.1822056034274D-01  7.2504965450550D-01
117  1.1600000000000D+00  7.4939892680085D-01  7.0142510473124D-01
118  1.1700000000000D+00  7.8048761667573D-01  6.7754965940547D-01
119  1.1800000000000D+00  8.1142999826236D-01  6.5345827363848D-01
120  1.1900000000000D+00  8.4216843099013D-01  6.2918634215703D-01
121  1.2000000000000D+00  8.7264441523602D-01  6.0476960061011D-01
122  1.2100000000000D+00  9.0279874851274D-01  5.8024402542327D-01
123  1.2200000000000D+00  9.3257168754689D-01  5.5564573262904D-01
124  1.2300000000000D+00  9.6190311573507D-01  5.3101087610614D-01
125  1.2400000000000D+00  9.9073271542337D-01  5.0637554566436D-01
126  1.2500000000000D+00  1.0190001444272D+00  4.8177566540894D-01
127  1.2600000000000D+00  1.0466452161897D+00  4.5724689281657D-01
128  1.2700000000000D+00  1.0736080829471D+00  4.3282451895332D-01
129  1.2800000000000D+00  1.0998294212383D+00  4.0854337025147D-01
130  1.2900000000000D+00  1.1252506190915D+00  3.8443771225734D-01
131  1.3000000000000D+00  1.1498139641938D+00  3.6054115575492D-01
132  1.3100000000000D+00  1.1734628323313D+00  3.3688656564269D-01
133  1.3200000000000D+00  1.1961418753871D+00  3.1350597294084D-01
134  1.3300000000000D+00  1.2177972081661D+00  2.9043049028662D-01
135  1.3400000000000D+00  1.2383765933116D+00  2.6769023123590D-01
136  1.3500000000000D+00  1.2578296235819D+00  2.4531423370559D-01
137  1.3600000000000D+00  1.2761079007425D+00  2.2333038783921D-01
138  1.3700000000000D+00  1.2931652103566D+00  2.0176536854756D-01
139  1.3800000000000D+00  1.3089576917273D+00  1.8064457300683D-01
140  1.3900000000000D+00  1.3234440022968D+00  1.5999206328776D-01
141  1.4000000000000D+00  1.3365854757920D+00  1.3983051432965D-01
142  1.4100000000000D+00  1.3483462734177D+00  1.2018116743286D-01
143  1.4200000000000D+00  1.3586935274715D+00  1.0106378935573D-01
144  1.4300000000000D+00  1.3675974766784D+00  8.2496637193332D-02
145  1.4400000000000D+00  1.3750315926828D+00  6.4496429045728D-02
146  1.4500000000000D+00  1.3809726970847D+00  4.7078320561199D-02
147  1.4600000000000D+00  1.3854010684364D+00  3.0255887380274D-02
148  1.4700000000000D+00  1.3883005387618D+00  1.4041113414730D-02
149  1.4800000000000D+00  1.3896585789756D+00 -1.5556149847179D-03
150  1.4900000000000D+00  1.3894663729133D+00 -1.6525509145826D-02
151  1.5000000000000D+00  1.3877188794229D+00 -3.0861372475490D-02
152  1.5100000000000D+00  1.3844148822510D+00 -4.4557589329571D-02
153  1.5200000000000D+00  1.3795570273814D+00 -5.7610108470170D-02
154  1.5300000000000D+00  1.3731518474972D+00 -7.0016421265648D-02
155  1.5400000000000D+00  1.3652097734945D+00 -8.1775534878081D-02
156  1.5500000000000D+00  1.3557451326366D+00 -9.2887940565906D-02
157  1.5600000000000D+00  1.3447761335515D+00 -1.0335557744537D-01
158  1.5700000000000D+00  1.3323248376254D+00 -1.1318179184033D-01
159  1.5800000000000D+00  1.3184171171686D+00 -1.2237129260619D-01
160  1.5900000000000D+00  1.3030826000329D+00 -1.3093010261043D-01
161  1.6000000000000D+00  1.2863546010753D+00 -1.3886550674413D-01
162  1.6100000000000D+00  1.2682700403726D+00 -1.4618599671266D-01
163  1.6200000000000D+00  1.2488693485625D+00 -1.5290121296391D-01
164  1.6300000000000D+00  1.2281963594467D+00 -1.5902188404658D-01
165  1.6400000000000D+00  1.2062981902163D+00 -1.6455976374947D-01
166  1.6500000000000D+00  1.1832251096481D+00 -1.6952756633391D-01
167  1.6600000000000D+00  1.1590303946348D+00 -1.7393890021128D-01
168  1.6700000000000D+00  1.1337701755809D+00 -1.7780820037430D-01
169  1.6800000000000D+00  1.1075032710517D+00 -1.8115065994074D-01
170  1.6900000000000D+00  1.0802910123517D+00 -1.8398216109616D-01
171  1.7000000000000D+00  1.0521970584742D+00 -1.8631920580136D-01
172  1.7100000000000D+00  1.0232872021932D+00 -1.8817884651799D-01
173  1.7200000000000D+00  9.9362916782790D-01 -1.8957861731736D-01
174  1.7300000000000D+00  9.6329240149444D-01 -1.9053646559246D-01
175  1.7400000000000D+00  9.3234785448903D-01 -1.9107068471877D-01
176  1.7500000000000D+00  9.0086776061899D-01 -1.9119984786357D-01
177  1.7600000000000D+00  8.6892540825372D-01 -1.9094274323935D-01
178  1.7700000000000D+00  8.3659490788312D-01 -1.9031831100684D-01
179  1.7800000000000D+00  8.0395095607565D-01 -1.8934558203182D-01
180  1.7900000000000D+00  7.7106859659316D-01 -1.8804361874594D-01
181  1.8000000000000D+00  7.3802297962961D-01 -1.8643145817295D-01
182  1.8100000000000D+00  7.0488911993948D-01 -1.8452805746364D-01
183  1.8200000000000D+00  6.7174165480538D-01 -1.8235224180391D-01
184  1.8300000000000D+00  6.3865460271033D-01 -1.7992265518011D-01
185  1.8400000000000D+00  6.0570112350255D-01 -1.7725771362900D-01
186  1.8500000000000D+00  5.7295328113260D-01 -1.7437556159673D-01
187  1.8600000000000D+00  5.4048180949080D-01 -1.7129403088169D-01
188  1.8700000000000D+00  5.0835588261781D-01 -1.6803060274309D-01
189  1.8800000000000D+00  4.7664288965469D-01 -1.6460237273009D-01
190  1.8900000000000D+00  4.4540821577416D-01 -1.6102601856281D-01
191  1.9000000000000D+00  4.1471502956968D-01 -1.5731777085655D-01
192  1.9100000000000D+00  3.8462407775618D-01 -1.5349338667304D-01
193  1.9200000000000D+00  3.5519348814383D-01 -1.4956812598297D-01
194  1.9300000000000D+00  3.2647858093212D-01 -1.4555673067100D-01
195  1.9400000000000D+00  2.9853169008309D-01 -1.4147340640896D-01
196  1.9500000000000D+00  2.7140199394077D-01 -1.3733180683397D-01
197  1.9600000000000D+00  2.4513535727176D-01 -1.3314502034384D-01
198  1.9700000000000D+00  2.1977418384395D-01 -1.2892555906907D-01
199  1.9800000000000D+00  1.9535728095626D-01 -1.2468535005081D-01
200  1.9900000000000D+00  1.7191973619669D-01 -1.2043572846760D-01
201  2.0000000000000D+00  1.4949280606901D-01 -1.1618743266308D-01
202  2.0100000000000D+00  1.2810381848295D-01 -1.1195060096992D-01
203  2.0200000000000D+00  1.0777608711130D-01 -1.0773477003313D-01
204  2.0300000000000D+00  8.8528840249657D-02 -1.0354887454689D-01
205  2.0400000000000D+00  7.0377162482885D-02 -9.9401248231020D-02
206  2.0500000000000D+00  5.3331950049768D-02 -9.5299625868469D-02
207  2.0600000000000D+00  3.7399880661738D-02 -9.1251146210636D-02
208  2.0700000000000D+00  2.2583395613237D-02 -8.7262355743906D-02
209  2.0800000000000D+00  8.8806942705756D-03 -8.3339212197820D-02
210  2.0900000000000D+00 -3.7142461593157D-03 -7.9487091584916D-02
211  2.1000000000000D+00 -1.5211652990465D-02 -7.5710791842744D-02
212  2.1100000000000D+00 -2.5625967430875D-02 -7.2014527211585D-02
213  2.1200000000000D+00 -3.4975629998333D-02 -6.8401972031128D-02
214  2.1300000000000D+00 -4.3283163645583D-02 -6.4876230698691D-02
215  2.1400000000000D+00 -5.0575259637713D-02 -6.1439808407011D-02
216  2.1500000000000D+00 -5.6882544690083D-02 -5.8094648326950D-02
217  2.1600000000000D+00 -6.2239022317139D-02 -5.4842239764063D-02
218  2.1700000000000D+00 -6.6681697869288D-02 -5.1683676291113D-02
219  2.1800000000000D+00 -7.0250183930582D-02 -4.8619734317964D-02
220  2.1900000000000D+00 -7.2986140376600D-02 -4.5650979396725D-02
221  2.2000000000000D+00 -7.4932824365205D-02 -4.2777848059820D-02
222  2.2100000000000D+00 -7.6135114459903D-02 -4.0000620835808D-02
223  2.2200000000000D+00 -7.6639424519405D-02 -3.7319422173262D-02
224  2.2300000000000D+00 -7.6493407914844D-02 -3.4734258959007D-02
225  2.2400000000000D+00 -7.5745742971783D-02 -3.2245040228643D-02
226  2.2500000000000D+00 -7.4445965041631D-02 -2.9851585319745D-02
227  2.2600000000000D+00 -7.2644236567003D-02 -2.7553642661018D-02
228  2.2700000000000D+00 -7.0391143196542D-02 -2.5350901709554D-02
229  2.2800000000000D+00 -6.7737483593565D-02 -2.3243004563189D-02
230  2.2900000000000D+00 -6.4734059385191D-02 -2.1229556030765D-02
231  2.3000000000000D+00 -6.1431465904812D-02 -1.9310132762962D-02
232  2.3100000000000D+00 -5.7879885101465D-02 -1.7484290827689D-02
233  2.3200000000000D+00 -5.4128881187500D-02 -1.5751572147049D-02
234  2.3300000000000D+00 -5.0227199132914D-02 -1.4111510035239D-02
235  2.3400000000000D+00 -4.6222568767180D-02 -1.2563633365860D-02
236  2.3500000000000D+00 -4.2161513273152D-02 -1.1107469962051D-02
237  2.3600000000000D+00 -3.8089163394493D-02 -9.7425491000677D-03
238  2.3700000000000D+00 -3.4049079782243D-02 -8.4684031212383D-03
239  2.3800000000000D+00 -3.0083081401783D-02 -7.2845683821748D-03
240  2.3900000000000D+00 -2.6231082601035D-02 -6.1905855725200D-03
241  2.4000000000000D+00 -2.2530940224089D-02 -5.1859995336762D-03
242  2.4100000000000D+00 -1.9018308218010D-02 -4.2703585130561D-03
243  2.4200000000000D+00 -1.5726503826433D-02 -3.4432131579247D-03
244  2.4300000000000D+00 -1.2689295924393D-02 -2.7045091839965D-03
245  2.4400000000000D+00 -9.9305840055888D-03 -2.0532044261548D-03
246  2.4500000000000D+00 -7.4727307272528D-03 -1.4884083360981D-03
247  2.4600000000000D+00 -5.3254614930980D-03 -1.0084813255340D-03
248  2.4700000000000D+00 -3.5392280198413D-03 -6.1610326151380D-04
249  2.4800000000000D+00 -2.1504760803291D-03 -3.1294782226132D-04
250  2.4900000000000D+00 -1.1931024284628D-03 -9.8121285977748D-05
251  2.5000000000000D+00 -5.9251495592763D-04  3.3431927807365D-05
252  2.5100000000000D+00 -2.6043628231502D-04  9.1732359505657D-05
253  2.5200000000000D+00 -8.6737125552900D-05  8.6498811071530D-05
254  2.5300000000000D+00 -1.6524408723487D-05  4.8302798240173D-05
255  2.5400000000000D+00 -1.7654871939001D-07  4.4714892249474D-06
256  2.5500000000000D+00 -1.3664364333702D-06 -1.4184338850906D-05
257  2.5600000000000D+00 -3.2821376266417D-06 -1.3550224486536D-05
258  2.5700000000000D+00 -7.6035485151572D-07 -2.2073084804427D-06
259  2.5800000000000D+00 -6.6856253168668D-07  2.7178478591935D-06
260  2.5900000000000D+00 -5.4302474839303D-07  3.0579784133034D-06
261  2.6000000000000D+00 -9.3518921642804D-08  7.6877968402576D-07
262  2.6100000000000D+00  4.9886428214080D-07 -1.9791989109718D-07
263  2.6200000000000D+00  6.4914683803343D-07 -2.5754313565667D-07
264  2.6300000000000D+00  2.3425413075300D-07 -9.2938207258969D-08
265  2.6400000000000D+00  0.0000000000000D+00  0.0000000000000D+00
266  2.6500000000000D+00  0.0000000000000D+00  0.0000000000000D+00
267  2.6600000000000D+00  0.0000000000000D+00  0.0000000000000D+00
268  2.6700000000000D+00  0.0000000000000D+00  0.0000000000000D+00
269  2.6800000000000D+00  0.0000000000000D+00  0.0000000000000D+00
270  2.6900000000000D+00  0.0000000000000D+00  0.0000000000000D+00
271  2.7000000000000D+00  0.0000000000000D+00  0.0000000000000D+00
272  2.7100000000000D+00  0.0000000000000D+00  0.0000000000000D+00
273  2.7200000000000D+00  0.0000000000000D+00  0.0000000000000D+00
274  2.7300000000000D+00  0.0000000000000D+00  0.0000000000000D+00
275  2.7400000000000D+00  0.0000000000000D+00  0.0000000000000D+00
276  2.7500000000000D+00  0.0000000000000D+00  0.0000000000000D+00
277  2.7600000000000D+00  0.0000000000000D+00  0.0000000000000D+00
278  2.7700000000000D+00  0.0000000000000D+00  0.0000000000000D+00
279  2.7800000000000D+00  0.0000000000000D+00  0.0000000000000D+00
280  2.7900000000000D+00  0.0000000000000D+00  0.0000000000000D+00
281  2.8000000000000D+00  0.0000000000000D+00  0.0000000000000D+00
282  2.8100000000000D+00  0.0000000000000D+00  0.0000000000000D+00
283  2.8200000000000D+00  0.0000000000000D+00  0.0000000000000D+00
284  2.8300000000000D+00  0.0000000000000D+00  0.0000000000000D+00
285  2.8400000000000D+00  0.0000000000000D+00  0.0000000000000D+00
286  2.8500000000000D+00  0.0000000000000D+00  0.0000000000000D+00
287  2.8600000000000D+00  0.0000000000000D+00  0.0000000000000D+00
288  2.8700000000000D+00  0.0000000000000D+00  0.0000000000000D+00
289  2.8800000000000D+00  0.0000000000000D+00  0.0000000000000D+00
290  2.8900000000000D+00  0.0000000000000D+00  0.0000000000000D+00
291  2.9000000000000D+00  0.0000000000000D+00  0.0000000000000D+00
292  2.9100000000000D+00  0.0000000000000D+00  0.0000000000000D+00
293  2.9200000000000D+00  0.0000000000000D+00  0.0000000000000D+00
294  2.9300000000000D+00  0.0000000000000D+00  0.0000000000000D+00
295  2.9400000000000D+00  0.0000000000000D+00  0.0000000000000D+00
296  2.9500000000000D+00  0.0000000000000D+00  0.0000000000000D+00
297  2.9600000000000D+00  0.0000000000000D+00  0.0000000000000D+00
298  2.9700000000000D+00  0.0000000000000D+00  0.0000000000000D+00
299  2.9800000000000D+00  0.0000000000000D+00  0.0000000000000D+00
300  2.9900000000000D+00  0.0000000000000D+00  0.0000000000000D+00
301  3.0000000000000D+00  0.0000000000000D+00  0.0000000000000D+00
302  3.0100000000000D+00  0.0000000000000D+00  0.0000000000000D+00
303  3.0200000000000D+00  0.0000000000000D+00  0.0000000000000D+00
304  3.0300000000000D+00  0.0000000000000D+00  0.0000000000000D+00
305  3.0400000000000D+00  0.0000000000000D+00  0.0000000000000D+00
306  3.0500000000000D+00  0.0000000000000D+00  0.0000000000000D+00
307  3.0600000000000D+00  0.0000000000000D+00  0.0000000000000D+00
308  3.0700000000000D+00  0.0000000000000D+00  0.0000000000000D+00
309  3.0800000000000D+00  0.0000000000000D+00  0.0000000000000D+00
310  3.0900000000000D+00  0.0000000000000D+00  0.0000000000000D+00
311  3.1000000000000D+00  0.0000000000000D+00  0.0000000000000D+00
312  3.1100000000000D+00  0.0000000000000D+00  0.0000000000000D+00
313  3.1200000000000D+00  0.0000000000000D+00  0.0000000000000D+00
314  3.1300000000000D+00  0.0000000000000D+00  0.0000000000000D+00
315  3.1400000000000D+00  0.0000000000000D+00  0.0000000000000D+00
316  3.1500000000000D+00  0.0000000000000D+00  0.0000000000000D+00
317  3.1600000000000D+00  0.0000000000000D+00  0.0000000000000D+00
318  3.1700000000000D+00  0.0000000000000D+00  0.0000000000000D+00
319  3.1800000000000D+00  0.0000000000000D+00  0.0000000000000D+00
320  3.1900000000000D+00  0.0000000000000D+00  0.0000000000000D+00
321  3.2000000000000D+00  0.0000000000000D+00  0.0000000000000D+00
322  3.2100000000000D+00  0.0000000000000D+00  0.0000000000000D+00
323  3.2200000000000D+00  0.0000000000000D+00  0.0000000000000D+00
324  3.2300000000000D+00  0.0000000000000D+00  0.0000000000000D+00
325  3.2400000000000D+00  0.0000000000000D+00  0.0000000000000D+00
326  3.2500000000000D+00  0.0000000000000D+00  0.0000000000000D+00
327  3.2600000000000D+00  0.0000000000000D+00  0.0000000000000D+00
328  3.2700000000000D+00  0.0000000000000D+00  0.0000000000000D+00
329  3.2800000000000D+00  0.0000000000000D+00  0.0000000000000D+00
330  3.2900000000000D+00  0.0000000000000D+00  0.0000000000000D+00
331  3.3000000000000D+00  0.0000000000000D+00  0.0000000000000D+00
332  3.3100000000000D+00  0.0000000000000D+00  0.0000000000000D+00
333  3.3200000000000D+00  0.0000000000000D+00  0.0000000000000D+00
334  3.3300000000000D+00  0.0000000000000D+00  0.0000000000000D+00
335  3.3400000000000D+00  0.0000000000000D+00  0.0000000000000D+00
336  3.3500000000000D+00  0.0000000000000D+00  0.0000000000000D+00
337  3.3600000000000D+00  0.0000000000000D+00  0.0000000000000D+00
338  3.3700000000000D+00  0.0000000000000D+00  0.0000000000000D+00
339  3.3800000000000D+00  0.0000000000000D+00  0.0000000000000D+00
340  3.3900000000000D+00  0.0000000000000D+00  0.0000000000000D+00
341  3.4000000000000D+00  0.0000000000000D+00  0.0000000000000D+00
342  3.4100000000000D+00  0.0000000000000D+00  0.0000000000000D+00
343  3.4200000000000D+00  0.0000000000000D+00  0.0000000000000D+00
344  3.4300000000000D+00  0.0000000000000D+00  0.0000000000000D+00
345  3.4400000000000D+00  0.0000000000000D+00  0.0000000000000D+00
346  3.4500000000000D+00  0.0000000000000D+00  0.0000000000000D+00
347  3.4600000000000D+00  0.0000000000000D+00  0.0000000000000D+00
348  3.4700000000000D+00  0.0000000000000D+00  0.0000000000000D+00
349  3.4800000000000D+00  0.0000000000000D+00  0.0000000000000D+00
350  3.4900000000000D+00  0.0000000000000D+00  0.0000000000000D+00
351  3.5000000000000D+00  0.0000000000000D+00  0.0000000000000D+00
352  3.5100000000000D+00  0.0000000000000D+00  0.0000000000000D+00
353  3.5200000000000D+00  0.0000000000000D+00  0.0000000000000D+00
354  3.5300000000000D+00  0.0000000000000D+00  0.0000000000000D+00
355  3.5400000000000D+00  0.0000000000000D+00  0.0000000000000D+00
356  3.5500000000000D+00  0.0000000000000D+00  0.0000000000000D+00
357  3.5600000000000D+00  0.0000000000000D+00  0.0000000000000D+00
358  3.5700000000000D+00  0.0000000000000D+00  0.0000000000000D+00
359  3.5800000000000D+00  0.0000000000000D+00  0.0000000000000D+00
360  3.5900000000000D+00  0.0000000000000D+00  0.0000000000000D+00
361  3.6000000000000D+00  0.0000000000000D+00  0.0000000000000D+00
362  3.6100000000000D+00  0.0000000000000D+00  0.0000000000000D+00
363  3.6200000000000D+00  0.0000000000000D+00  0.0000000000000D+00
364  3.6300000000000D+00  0.0000000000000D+00  0.0000000000000D+00
365  3.6400000000000D+00  0.0000000000000D+00  0.0000000000000D+00
366  3.6500000000000D+00  0.0000000000000D+00  0.0000000000000D+00
367  3.6600000000000D+00  0.0000000000000D+00  0.0000000000000D+00
368  3.6700000000000D+00  0.0000000000000D+00  0.0000000000000D+00
369  3.6800000000000D+00  0.0000000000000D+00  0.0000000000000D+00
370  3.6900000000000D+00  0.0000000000000D+00  0.0000000000000D+00
371  3.7000000000000D+00  0.0000000000000D+00  0.0000000000000D+00
372  3.7100000000000D+00  0.0000000000000D+00  0.0000000000000D+00
373  3.7200000000000D+00  0.0000000000000D+00  0.0000000000000D+00
374  3.7300000000000D+00  0.0000000000000D+00  0.0000000000000D+00
375  3.7400000000000D+00  0.0000000000000D+00  0.0000000000000D+00
376  3.7500000000000D+00  0.0000000000000D+00  0.0000000000000D+00
377  3.7600000000000D+00  0.0000000000000D+00  0.0000000000000D+00
378  3.7700000000000D+00  0.0000000000000D+00  0.0000000000000D+00
379  3.7800000000000D+00  0.0000000000000D+00  0.0000000000000D+00
380  3.7900000000000D+00  0.0000000000000D+00  0.0000000000000D+00
381  3.8000000000000D+00  0.0000000000000D+00  0.0000000000000D+00
382  3.8100000000000D+00  0.0000000000000D+00  0.0000000000000D+00
383  3.8200000000000D+00  0.0000000000000D+00  0.0000000000000D+00
384  3.8300000000000D+00  0.0000000000000D+00  0.0000000000000D+00
385  3.8400000000000D+00  0.0000000000000D+00  0.0000000000000D+00
386  3.8500000000000D+00  0.0000000000000D+00  0.0000000000000D+00
387  3.8600000000000D+00  0.0000000000000D+00  0.0000000000000D+00
388  3.8700000000000D+00  0.0000000000000D+00  0.0000000000000D+00
389  3.8800000000000D+00  0.0000000000000D+00  0.0000000000000D+00
390  3.8900000000000D+00  0.0000000000000D+00  0.0000000000000D+00
391  3.9000000000000D+00  0.0000000000000D+00  0.0000000000000D+00
392  3.9100000000000D+00  0.0000000000000D+00  0.0000000000000D+00
393  3.9200000000000D+00  0.0000000000000D+00  0.0000000000000D+00
394  3.9300000000000D+00  0.0000000000000D+00  0.0000000000000D+00
395  3.9400000000000D+00  0.0000000000000D+00  0.0000000000000D+00
396  3.9500000000000D+00  0.0000000000000D+00  0.0000000000000D+00
397  3.9600000000000D+00  0.0000000000000D+00  0.0000000000000D+00
398  3.9700000000000D+00  0.0000000000000D+00  0.0000000000000D+00
399  3.9800000000000D+00  0.0000000000000D+00  0.0000000000000D+00
400  3.9900000000000D+00  0.0000000000000D+00  0.0000000000000D+00
401  4.0000000000000D+00  0.0000000000000D+00  0.0000000000000D+00
402  4.0100000000000D+00  0.0000000000000D+00  0.0000000000000D+00
403  4.0200000000000D+00  0.0000000000000D+00  0.0000000000000D+00
404  4.0300000000000D+00  0.0000000000000D+00  0.0000000000000D+00
405  4.0400000000000D+00  0.0000000000000D+00  0.0000000000000D+00
406  4.0500000000000D+00  0.0000000000000D+00  0.0000000000000D+00
407  4.0600000000000D+00  0.0000000000000D+00  0.0000000000000D+00
408  4.0700000000000D+00  0.0000000000000D+00  0.0000000000000D+00
409  4.0800000000000D+00  0.0000000000000D+00  0.0000000000000D+00
410  4.0900000000000D+00  0.0000000000000D+00  0.0000000000000D+00
411  4.1000000000000D+00  0.0000000000000D+00  0.0000000000000D+00
412  4.1100000000000D+00  0.0000000000000D+00  0.0000000000000D+00
413  4.1200000000000D+00  0.0000000000000D+00  0.0000000000000D+00
414  4.1300000000000D+00  0.0000000000000D+00  0.0000000000000D+00
415  4.1400000000000D+00  0.0000000000000D+00  0.0000000000000D+00
416  4.1500000000000D+00  0.0000000000000D+00  0.0000000000000D+00
417  4.1600000000000D+00  0.0000000000000D+00  0.0000000000000D+00
418  4.1700000000000D+00  0.0000000000000D+00  0.0000000000000D+00
419  4.1800000000000D+00  0.0000000000000D+00  0.0000000000000D+00
420  4.1900000000000D+00  0.0000000000000D+00  0.0000000000000D+00
421  4.2000000000000D+00  0.0000000000000D+00  0.0000000000000D+00
422  4.2100000000000D+00  0.0000000000000D+00  0.0000000000000D+00
423  4.2200000000000D+00  0.0000000000000D+00  0.0000000000000D+00
424  4.2300000000000D+00  0.0000000000000D+00  0.0000000000000D+00
425  4.2400000000000D+00  0.0000000000000D+00  0.0000000000000D+00
426  4.2500000000000D+00  0.0000000000000D+00  0.0000000000000D+00
427  4.2600000000000D+00  0.0000000000000D+00  0.0000000000000D+00
428  4.2700000000000D+00  0.0000000000000D+00  0.0000000000000D+00
429  4.2800000000000D+00  0.0000000000000D+00  0.0000000000000D+00
430  4.2900000000000D+00  0.0000000000000D+00  0.0000000000000D+00
431  4.3000000000000D+00  0.0000000000000D+00  0.0000000000000D+00
432  4.3100000000000D+00  0.0000000000000D+00  0.0000000000000D+00
433  4.3200000000000D+00  0.0000000000000D+00  0.0000000000000D+00
434  4.3300000000000D+00  0.0000000000000D+00  0.0000000000000D+00
435  4.3400000000000D+00  0.0000000000000D+00  0.0000000000000D+00
436  4.3500000000000D+00  0.0000000000000D+00  0.0000000000000D+00
437  4.3600000000000D+00  0.0000000000000D+00  0.0000000000000D+00
438  4.3700000000000D+00  0.0000000000000D+00  0.0000000000000D+00
439  4.3800000000000D+00  0.0000000000000D+00  0.0000000000000D+00
440  4.3900000000000D+00  0.0000000000000D+00  0.0000000000000D+00
441  4.4000000000000D+00  0.0000000000000D+00  0.0000000000000D+00
442  4.4100000000000D+00  0.0000000000000D+00  0.0000000000000D+00
443  4.4200000000000D+00  0.0000000000000D+00  0.0000000000000D+00