<?xml version="1.0" encoding="UTF-8" ?>
<psml version="1.1" energy_unit="hartree" length_unit="bohr"
 uuid="23454760-514b-11e8-7e70-785717f6fca3"
 xmlns="http://esl.cecam.org/PSML/ns/1.1">
<provenance creator="ONCVPSP-3.3.0+psml-3.3.0-73 (fully-relativistic)"
 date="2018-05-06">
<annotation action="semilocal-pseudopotential-generation"
 action-cont="projectors-generation" />
<input-file name="oncvpsp-input">
<![CDATA[# atsym z nc nv iexc psfile
Sb 51 9 2 -116133 both
# n l f
1 0 2.0
2 0 2.0
2 1 6.0
3 0 2.0
3 1 6.0
3 2 10.0
4 0 2.0
4 1 6.0
4 2 10.0
5 0 2.0
5 1 3.0
# lmax
2
# l rc ep ncon nbas qcut
0 2.5 0.0 4 9 4.1
1 2.15 0.0 4 8 4.6
2 2.6 0.1 4 8 5.0
# lloc lpopt rc5 dvloc0
4 5 2.15 0.0
# l nproj debl
0 2 1.8
1 2 3.0
2 2 3.0
# icmod fcfact
3 7.0 1.24
# epsh1 epsh2 depsh
-12.0 12.0 0.02
# rlmax drl
6.0 0.01
 0
]]>
</input-file>
</provenance>
<pseudo-atom-spec atomic-label="Sb" atomic-number="51" z-pseudo="5"
 flavor="Hamann&apos;s oncvpsp" relativity="dirac" spin-dft="no"
 core-corrections="yes">
<annotation pseudo-energy="-5.50441251549" />
<exchange-correlation>
<annotation oncvpsp-xc-code="-116133" oncvpsp-xc-type="libxc-interface" />
<libxc-info number-of-functionals="2">
<functional name="Perdew, Burke &amp; Ernzerhof SOL (GGA)" type="exchange"
 id="116" />
<functional name="Perdew, Burke &amp; Ernzerhof SOL (GGA)" type="correlation"
 id="133" />
</libxc-info>
</exchange-correlation>
<valence-configuration total-valence-charge="5">
<shell n="5" l="s" occupation="2" />
<shell n="5" l="p" occupation="3" />
</valence-configuration>
</pseudo-atom-spec>
<grid npts="457">
<annotation type="sampled from oncvpsp log grid"
 recipe="r(i:1..N) = r1*exp(a*(i-1)) + r=0; resampled"
 recipe-cont="r1: scale; a: step" scale="0.980392156863E-05"
 step="0.119285708653E-01" delta="0.500000000000E-02" rmax="43.9721684583" />
<grid-data>
  0.000000000000E+00  5.021204018428E-03  1.002946097687E-02  1.504579076758E-02
  2.027345795207E-02  2.543065629312E-02  3.077838077958E-02  3.594118822007E-02
  4.098057695047E-02  4.617247910357E-02  5.140528910190E-02  5.655251270478E-02
  6.221512900910E-02  6.763314664665E-02  7.265117934131E-02  7.804152433212E-02
  8.383180528246E-02  8.898388872515E-02  9.445260573801E-02  1.002574157919E-01
  1.064189742860E-01  1.116197688201E-01  1.170747310341E-01  1.227962823396E-01
  1.287974511941E-01  1.350919027679E-01  1.416939700613E-01  1.468564096257E-01
  1.522069361091E-01  1.577524022190E-01  1.634999103328E-01  1.694568215939E-01
  1.756307653396E-01  1.820296488724E-01  1.886616675873E-01  1.955353154683E-01
  2.026593959664E-01  2.100430332757E-01  2.151143122711E-01  2.203080322266E-01
  2.256271493567E-01  2.310746912507E-01  2.366537585963E-01  2.423675269438E-01
  2.482192485144E-01  2.542122540505E-01  2.603499547123E-01  2.666358440189E-01
  2.730734998369E-01  2.796665864169E-01  2.864188564794E-01  2.933341533502E-01
  3.004164131487E-01  3.076696670278E-01  3.150980434685E-01  3.227057706300E-01
  3.304971787561E-01  3.384767026400E-01  3.466488841485E-01  3.550183748074E-01
  3.635899384487E-01  3.723684539226E-01  3.813589178741E-01  3.905664475873E-01
  3.999962838978E-01  4.096537941763E-01  4.195444753829E-01  4.245790090875E-01
  4.296739571965E-01  4.348300446829E-01  4.400480052191E-01  4.453285812817E-01
  4.506725242571E-01  4.560805945481E-01  4.615535616827E-01  4.670922044229E-01
  4.726973108760E-01  4.783696786065E-01  4.841101147498E-01  4.899194361268E-01
  4.957984693603E-01  5.017480509926E-01  5.077690276045E-01  5.138622559358E-01
  5.200286030070E-01  5.262689462431E-01  5.325841735980E-01  5.389751836812E-01
  5.454428858854E-01  5.519882005160E-01  5.586120589222E-01  5.653154036293E-01
  5.720991884728E-01  5.789643787345E-01  5.859119512793E-01  5.929428946946E-01
  6.000582094310E-01  6.072589079442E-01  6.145460148395E-01  6.219205670176E-01
  6.293836138218E-01  6.369362171876E-01  6.445794517939E-01  6.523144052154E-01
  6.601421780780E-01  6.680638842149E-01  6.760806508255E-01  6.841936186354E-01
  6.924039420590E-01  7.007127893637E-01  7.091213428361E-01  7.176307989501E-01
  7.262423685375E-01  7.349572769600E-01  7.437767642835E-01  7.527020854549E-01
  7.617345104804E-01  7.708753246061E-01  7.801258285014E-01  7.894873384434E-01
  7.989611865048E-01  8.085487207428E-01  8.182513053917E-01  8.280703210564E-01
  8.380071649091E-01  8.480632508880E-01  8.582400098987E-01  8.685388900175E-01
  8.789613566977E-01  8.895088929780E-01  9.001829996938E-01  9.109851956901E-01
  9.219170180384E-01  9.329800222548E-01  9.441757825219E-01  9.555058919122E-01
  9.669719626151E-01  9.785756261665E-01  9.903185336805E-01  1.002202356085E+00
  1.014228784358E+00  1.026399529770E+00  1.038716324127E+00  1.051180920017E+00
  1.063795091057E+00  1.076560632150E+00  1.089479359735E+00  1.102553112052E+00
  1.115783749397E+00  1.129173154390E+00  1.142723232242E+00  1.156435911029E+00
  1.170313141962E+00  1.184356899665E+00  1.198569182461E+00  1.212952012651E+00
  1.227507436802E+00  1.242237526044E+00  1.257144376357E+00  1.272230108873E+00
  1.287496870179E+00  1.302946832621E+00  1.318582194613E+00  1.334405180948E+00
  1.350418043120E+00  1.366623059637E+00  1.383022536353E+00  1.399618806789E+00
  1.416414232470E+00  1.433411203260E+00  1.450612137699E+00  1.468019483352E+00
  1.485635717152E+00  1.503463345758E+00  1.521504905907E+00  1.539762964778E+00
  1.558240120355E+00  1.576939001799E+00  1.595862269821E+00  1.615012617059E+00
  1.634392768463E+00  1.654005481685E+00  1.673853547465E+00  1.693939790035E+00
  1.714267067515E+00  1.734838272325E+00  1.755656331593E+00  1.776724207572E+00
  1.798044898063E+00  1.819621436840E+00  1.841456894082E+00  1.863554376811E+00
  1.885917029333E+00  1.908548033685E+00  1.931450610089E+00  1.954628017410E+00
  1.978083553619E+00  2.001820556262E+00  2.025842402938E+00  2.050152511773E+00
  2.074754341914E+00  2.099651394017E+00  2.124847210745E+00  2.150345377274E+00
  2.176149521801E+00  2.202263316063E+00  2.228690475856E+00  2.255434761566E+00
  2.282499978705E+00  2.309889978449E+00  2.337608658191E+00  2.365659962089E+00
  2.394047881634E+00  2.422776456214E+00  2.451849773688E+00  2.481271970973E+00
  2.511047234624E+00  2.541179801440E+00  2.571673959057E+00  2.602534046566E+00
  2.633764455124E+00  2.665369628586E+00  2.697354064129E+00  2.729722312899E+00
  2.762478980653E+00  2.795628728421E+00  2.829176273162E+00  2.863126388440E+00
  2.897483905101E+00  2.932253711963E+00  2.967440756506E+00  3.003050045584E+00
  3.039086646131E+00  3.075555685885E+00  3.112462354115E+00  3.149811902365E+00
  3.187609645193E+00  3.225860960936E+00  3.264571292467E+00  3.303746147976E+00
  3.343391101752E+00  3.383511794973E+00  3.424113936513E+00  3.465203303751E+00
  3.506785743396E+00  3.548867172317E+00  3.591453578385E+00  3.634551021325E+00
  3.678165633581E+00  3.722303621184E+00  3.766971264638E+00  3.812174919814E+00
  3.857921018852E+00  3.904216071078E+00  3.951066663931E+00  3.998479463898E+00
  4.046461217465E+00  4.095018752074E+00  4.144158977099E+00  4.193888884824E+00
  4.244215551442E+00  4.295146138060E+00  4.346687891716E+00  4.398848146417E+00
  4.451634324174E+00  4.505053936064E+00  4.559114583297E+00  4.613823958296E+00
  4.669189845796E+00  4.725220123945E+00  4.781922765433E+00  4.839305838618E+00
  4.897377508681E+00  4.956146038786E+00  5.015619791251E+00  5.075807228746E+00
  5.136716915491E+00  5.198357518477E+00  5.260737808699E+00  5.323866662403E+00
  5.387753062352E+00  5.452406099100E+00  5.517834972289E+00  5.584048991957E+00
  5.651057579860E+00  5.718870270818E+00  5.787496714068E+00  5.856946674637E+00
  5.927230034733E+00  5.998356795150E+00  6.070337076691E+00  6.143181121612E+00
  6.216899295071E+00  6.291502086612E+00  6.367000111651E+00  6.443404112991E+00
  6.520724962347E+00  6.598973661895E+00  6.678161345838E+00  6.758299281988E+00
  6.839398873372E+00  6.921471659852E+00  7.004529319770E+00  7.088583671608E+00
  7.173646675667E+00  7.259730435775E+00  7.346847201004E+00  7.435009367416E+00
  7.524229479825E+00  7.614520233583E+00  7.705894476386E+00  7.798365210103E+00
  7.891945592624E+00  7.986648939736E+00  8.082488727012E+00  8.179478591737E+00
  8.277632334837E+00  8.376963922855E+00  8.477487489930E+00  8.579217339809E+00
  8.682167947887E+00  8.786353963261E+00  8.891790210820E+00  8.998491693350E+00
  9.106473593670E+00  9.215751276794E+00  9.326340292116E+00  9.438256375621E+00
  9.551515452129E+00  9.666133637554E+00  9.782127241205E+00  9.899512768099E+00
  1.001830692132E+01  1.013852660437E+01  1.026018892362E+01  1.038331119071E+01
  1.050791092500E+01  1.063400585610E+01  1.076161392637E+01  1.089075329349E+01
  1.102144233301E+01  1.115369964100E+01  1.128754403670E+01  1.142299456514E+01
  1.156007049992E+01  1.169879134592E+01  1.183917684207E+01  1.198124696417E+01
  1.212502192774E+01  1.227052219088E+01  1.241776845717E+01  1.256678167865E+01
  1.271758305880E+01  1.287019405550E+01  1.302463638417E+01  1.318093202078E+01
  1.333910320503E+01  1.349917244349E+01  1.366116251281E+01  1.382509646296E+01
  1.399099762052E+01  1.415888959197E+01  1.432879626707E+01  1.450074182227E+01
  1.467475072414E+01  1.485084773283E+01  1.502905790562E+01  1.520940660049E+01
  1.539191947970E+01  1.557662251345E+01  1.576354198362E+01  1.595270448742E+01
  1.614413694127E+01  1.633786658456E+01  1.653392098358E+01  1.673232803538E+01
  1.693311597181E+01  1.713631336347E+01  1.734194912383E+01  1.755005251332E+01
  1.776065314347E+01  1.797378098120E+01  1.818946635297E+01  1.840773994921E+01
  1.862863282860E+01  1.885217642254E+01  1.907840253961E+01  1.930734337009E+01
  1.953903149053E+01  1.977349986841E+01  2.001078186683E+01  2.025091124924E+01
  2.049392218423E+01  2.073984925044E+01  2.098872744144E+01  2.124059217074E+01
  2.149547927679E+01  2.175342502811E+01  2.201446612845E+01  2.227863972199E+01
  2.254598339865E+01  2.281653519944E+01  2.309033362183E+01  2.336741762529E+01
  2.364782663680E+01  2.393160055644E+01  2.421877976311E+01  2.450940512027E+01
  2.480351798172E+01  2.510116019750E+01  2.540237411987E+01  2.570720260930E+01
  2.601568904062E+01  2.632787730910E+01  2.664381183681E+01  2.696353757885E+01
  2.728710002980E+01  2.761454523016E+01  2.794591977292E+01  2.828127081020E+01
  2.862064605992E+01  2.896409381264E+01  2.931166293839E+01  2.966340289365E+01
  3.001936372837E+01  3.037959609311E+01  3.074415124623E+01  3.111308106119E+01
  3.148643803392E+01  3.186427529033E+01  3.224664659381E+01  3.263360635294E+01
  3.302520962917E+01  3.342151214472E+01  3.382257029046E+01  3.422844113394E+01
  3.463918242755E+01  3.505485261668E+01  3.547551084808E+01  3.590121697826E+01
  3.633203158200E+01  3.676801596098E+01  3.720923215251E+01  3.765574293834E+01
  3.810761185360E+01  3.856490319585E+01  3.902768203420E+01  3.949601421861E+01
  3.996996638923E+01  4.044960598590E+01  4.093500125773E+01  4.142622127283E+01
  4.192333592810E+01  4.242641595924E+01  4.293553295075E+01  4.345075934616E+01
  4.397216845831E+01
</grid-data>
</grid>
<valence-charge total-charge="5" is-unscreening-charge="yes"
 rescaled-to-z-pseudo="no">
<radfunc>
<data npts="457">
  9.859472575380E-03  9.863637224201E-03  9.876091535162E-03  9.896885662569E-03
  9.927433917386E-03  9.966474818684E-03  1.001633361768E-02  1.007356640523E-02
  1.013809754933E-02  1.021359083422E-02  1.029899481448E-02  1.039219668553E-02
  1.050535717813E-02  1.062415174270E-02  1.074344875203E-02  1.088163792746E-02
  1.104180174835E-02  1.119464693568E-02  1.136767242705E-02  1.156365190780E-02
  1.178576771270E-02  1.198471854361E-02  1.220485090318E-02  1.244854553176E-02
  1.271847448051E-02  1.301764085505E-02  1.334942458362E-02  1.362194136695E-02
  1.391672330873E-02  1.423572683177E-02  1.458109794616E-02  1.495519259222E-02
  1.536059933049E-02  1.580016465306E-02  1.627702122003E-02  1.679461935651E-02
  1.735676217955E-02  1.796764476018E-02  1.840424484835E-02  1.886604461898E-02
  1.935463604703E-02  1.987172113917E-02  2.041911998153E-02  2.099877936960E-02
  2.161278205695E-02  2.226335666059E-02  2.295288826169E-02  2.368392974149E-02
  2.445921389236E-02  2.528166634432E-02  2.615441934706E-02  2.708082644635E-02
  2.806447809270E-02  2.910921821715E-02  3.021916180656E-02  3.139871350567E-02
  3.265258726799E-02  3.398582707000E-02  3.540382869425E-02  3.691236257532E-02
  3.851759768937E-02  4.022612645073E-02  4.204499055943E-02  4.398170771942E-02
  4.604429911866E-02  4.824131752901E-02  5.058187584390E-02  5.180899047763E-02
  5.307567582582E-02  5.438324132511E-02  5.573303678115E-02  5.712645323573E-02
  5.856492381739E-02  6.004992457140E-02  6.158297526466E-02  6.316564016069E-02
  6.479952875938E-02  6.648629649570E-02  6.822764539133E-02  7.002532465217E-02
  7.188113120461E-02  7.379691016253E-02  7.577455521660E-02  7.781600893650E-02
  7.992326297631E-02  8.209835817227E-02  8.434338452152E-02  8.666048102957E-02
  8.905183541324E-02  9.151968364513E-02  9.406630932453E-02  9.669404285873E-02
  9.940526043781E-02  1.022023827847E-01  1.050878736614E-01  1.080642381106E-01
  1.111340204124E-01  1.142998017316E-01  1.175641974333E-01  1.209298540414E-01
  1.243994458128E-01  1.279756709016E-01  1.316612470825E-01  1.354589070068E-01
  1.393713929568E-01  1.434014510696E-01  1.475518249971E-01  1.518252489683E-01
  1.562244402203E-01  1.607520907656E-01  1.654108584575E-01  1.702033573238E-01
  1.751321471312E-01  1.801997221493E-01  1.854084990808E-01  1.907608041279E-01
  1.962588591656E-01  2.019047669956E-01  2.077004956576E-01  2.136478617783E-01
  2.197485129416E-01  2.260039090715E-01  2.324153028213E-01  2.389837189715E-01
  2.457099328461E-01  2.525944477647E-01  2.596374715577E-01  2.668388921815E-01
  2.741982524823E-01  2.817147241692E-01  2.893870810701E-01  2.972136717586E-01
  3.051923916538E-01  3.133206547117E-01  3.215953648435E-01  3.300128872105E-01
  3.385690195668E-01  3.472589638343E-01  3.560772981163E-01  3.650179493683E-01
  3.740741669677E-01  3.832384974352E-01  3.925027605782E-01  4.018580273397E-01
  4.112945996498E-01  4.208019925827E-01  4.303689191347E-01  4.399832779401E-01
  4.496321442426E-01  4.593017644419E-01  4.689775545252E-01  4.786441026849E-01
  4.882851764129E-01  4.978837343395E-01  5.074219430669E-01  5.168811992199E-01
  5.262421569078E-01  5.354847607586E-01  5.445882846524E-01  5.535313762435E-01
  5.622921073226E-01  5.708480300322E-01  5.791762389109E-01  5.872534387055E-01
  5.950560178576E-01  6.025601275386E-01  6.097417660853E-01  6.165768686636E-01
  6.230414019736E-01  6.291114637989E-01  6.347633871963E-01  6.399738491202E-01
  6.447199832762E-01  6.489794969994E-01  6.527307919537E-01  6.559530884388E-01
  6.586265530845E-01  6.607324296815E-01  6.622531728608E-01  6.631725842755E-01
  6.634759508544E-01  6.631501845938E-01  6.621839632163E-01  6.605678708642E-01
  6.582945378032E-01  6.553587778931E-01  6.517577223411E-01  6.474909479970E-01
  6.425605981792E-01  6.369714937575E-01  6.307312319661E-01  6.238502701976E-01
  6.163419918529E-01  6.082227512081E-01  5.995118942292E-01  5.902317523386E-01
  5.804076063280E-01  5.700676179372E-01  5.592427270959E-01  5.479665134500E-01
  5.362750215763E-01  5.242065502160E-01  5.118014069021E-01  4.991016305044E-01
  4.861506062115E-01  4.729923262131E-01  4.596704492772E-01  4.462278415905E-01
  4.327063264910E-01  4.191462770273E-01  4.055862825415E-01  3.920628292384E-01
  3.786100153732E-01  3.652593098530E-01  3.520393631174E-01  3.389758778498E-01
  3.260915452647E-01  3.134061402528E-01  3.009370422698E-01  2.886999597289E-01
  2.767090828438E-01  2.649770063665E-01  2.535148315389E-01  2.423322076564E-01
  2.314373868668E-01  2.208372808408E-01  2.105375196984E-01  2.005425128207E-01
  1.908555110169E-01  1.814786696650E-01  1.724131124210E-01  1.636589951231E-01
  1.552155695435E-01  1.470812466667E-01  1.392536591975E-01  1.317297230317E-01
  1.245056974442E-01  1.175772437774E-01  1.109394824388E-01  1.045870480385E-01
  9.851414252359E-02  9.271458618969E-02  8.718186646996E-02  8.190918442651E-02
  7.688949888686E-02  7.211556819040E-02  6.757998952457E-02  6.327523585080E-02
  5.919369043249E-02  5.532767900990E-02  5.166949963655E-02  4.821145026076E-02
  4.494585410635E-02  4.186508293062E-02  3.896157824357E-02  3.622787057788E-02
  3.365659690360E-02  3.124051628379E-02  2.897252386825E-02  2.684566332132E-02
  2.485313777763E-02  2.298831941562E-02  2.124475773418E-02  1.961618661217E-02
  1.809653022473E-02  1.667990788431E-02  1.536063786865E-02  1.413324029285E-02
  1.299243907785E-02  1.193316306454E-02  1.095054631963E-02  1.003992767796E-02
  9.196849565152E-03  8.417056144316E-03  7.696490831349E-03  7.031293224193E-03
  6.417795492784E-03  5.852518277704E-03  5.332166146672E-03  4.853622658973E-03
  4.413945088373E-03  4.010358855161E-03  3.640251717459E-03  3.301167770985E-03
  2.990801304930E-03  2.706990559673E-03  2.447711429623E-03  2.211071151780E-03
  1.995302017528E-03  1.798755141933E-03  1.619894321435E-03  1.457290007338E-03
  1.309613419015E-03  1.175630817322E-03  1.054197955340E-03  9.442547203724E-04
  8.448199780566E-04  7.549866266106E-04  6.739168665906E-04  6.008376891337E-04
  5.350365834989E-04  4.758574628056E-04  4.226968052019E-04  3.750000062786E-04
  3.322579373590E-04  2.940037033447E-04  2.598095930538E-04  2.292842144469E-04
  2.020698067697E-04  1.778397214336E-04  1.562960633884E-04  1.371674847811E-04
  1.202071228384E-04  1.051906741204E-04  9.191459756372E-05  8.019443903383E-05
  6.986327044260E-05  6.077023682185E-05  5.277920508916E-05  4.576750857498E-05
  3.962478170265E-05  3.425187951763E-05  2.955987704863E-05  2.546914374916E-05
  2.190848851476E-05  1.881437099844E-05  1.613017515717E-05  1.380554115720E-05
  1.179575194699E-05  1.006117097671E-05  8.566727703544E-06  7.281447674659E-06
  6.178024126492E-06  5.232428180372E-06  4.423554852519E-06  3.732902231156E-06
  3.144281305735E-06  2.643554063369E-06  2.218397595580E-06  1.858092084534E-06
  1.553330661766E-06  1.296049253937E-06  1.079274649028E-06  8.969891323493E-07
  7.440101544071E-07  6.158836018021E-07  5.087893475743E-07  4.194578584874E-07
  3.450967334612E-07  2.833261394915E-07  2.321221988080E-07  1.897674636187E-07
  1.548076925118E-07  1.260142154387E-07  1.023512422112E-07  8.294753268649E-08
  6.707190540372E-08  5.411211549514E-08  4.355668240579E-08  3.497929348619E-08
  2.802545108190E-08  2.240106853934E-08  1.786275480004E-08  1.420955818975E-08
  1.127596784990E-08  8.925996231217E-09  7.048188393130E-09  5.551423742264E-09
  4.361393505715E-09  3.417652868067E-09  2.671160492968E-09  2.082230278263E-09
  1.618830824297E-09  1.255177383134E-09  9.705691455028E-10  7.484317446960E-10
  5.755309334780E-10  4.413286319193E-10  3.374570512693E-10  2.572904620794E-10
  1.955974752677E-10  1.482595155958E-10  1.120435530569E-10  8.441917664265E-11
  6.341179778749E-11  4.748520234370E-11  3.544786949508E-11  2.637847788914E-11
  1.956685326875E-11  1.446730384561E-11  1.066186185338E-11  7.831421288909E-12
  5.733149176927E-12  4.182864742062E-12  3.041339503474E-12  2.203681554290E-12
  1.591137606192E-12  1.144783866016E-12  8.206874009924E-13  5.862082853846E-13
  4.171836050083E-13  2.957907167898E-13  2.089318082172E-13  1.470170638491E-13
  1.030514912039E-13  7.195220597965E-14  5.003995771155E-14  3.466188496243E-14
  2.391272211834E-14  1.642957655026E-14  1.124146432888E-14  7.659438801194E-15
  5.196688390060E-15  3.510669164904E-15  2.361370879929E-15  1.581345835402E-15
  1.054277355213E-15  6.997211162071E-16  4.622890450564E-16  3.040163095701E-16
  1.989988971695E-16  1.296434294443E-16  8.405656787686E-17  5.423617308733E-17
  3.482389115700E-17  2.224901287918E-17  1.414371152720E-17  8.945588179437E-18
  5.628862346723E-18  3.523478146115E-18  2.193988908291E-18  1.358881134109E-18
  8.371140507085E-19  5.128796040044E-19  3.124963275167E-19  1.893405420994E-19
  1.093232779815E-19  6.557159566942E-20  3.910081317816E-20  2.317871062455E-20
  0.000000000000E+00  0.000000000000E+00  0.000000000000E+00  0.000000000000E+00
  0.000000000000E+00  0.000000000000E+00  0.000000000000E+00  0.000000000000E+00
  0.000000000000E+00  0.000000000000E+00  0.000000000000E+00  0.000000000000E+00
  0.000000000000E+00  0.000000000000E+00  0.000000000000E+00  0.000000000000E+00
  0.000000000000E+00
</data>
</radfunc>
</valence-charge>
<pseudocore-charge matching-radius="1.75565633159"
 number-of-continuous-derivatives="4">
<annotation model-charge-form="Teter function with specified parameters" />
<radfunc>
<data npts="291">
  4.870642850931E+00  4.870560987338E+00  4.870316248032E+00  4.869907867017E+00
  4.869308474291E+00  4.868543398908E+00  4.867567875790E+00  4.866450204465E+00
  4.865192719494E+00  4.863725243769E+00  4.862069789894E+00  4.860268789759E+00
  4.858089899143E+00  4.855811602892E+00  4.853532912085E+00  4.850904787384E+00
  4.847873864470E+00  4.844996345482E+00  4.841756184707E+00  4.838107953269E+00
  4.834000604929E+00  4.830345860895E+00  4.826328155599E+00  4.821911771562E+00
  4.817057545650E+00  4.811722551264E+00  4.805859754334E+00  4.801085477327E+00
  4.795961921241E+00  4.790463927431E+00  4.784564585691E+00  4.778235121693E+00
  4.771444778699E+00  4.764160693474E+00  4.756347766428E+00  4.747968526052E+00
  4.738982987801E+00  4.729348507666E+00  4.722542671143E+00  4.715414080776E+00
  4.707947935549E+00  4.700128806264E+00  4.691940614038E+00  4.683366608619E+00
  4.674389346589E+00  4.664990669543E+00  4.655151682325E+00  4.644852731441E+00
  4.634073383749E+00  4.622792405582E+00  4.610987742426E+00  4.598636499347E+00
  4.585714922337E+00  4.572198380791E+00  4.558061351347E+00  4.543277403338E+00
  4.527819186142E+00  4.511658418739E+00  4.494765881810E+00  4.477111412750E+00
  4.458663904008E+00  4.439391305187E+00  4.419260629394E+00  4.398237964358E+00
  4.376288488883E+00  4.353376495254E+00  4.329465418238E+00  4.317123571123E+00
  4.304517871404E+00  4.291643524745E+00  4.278495691513E+00  4.265069488660E+00
  4.251359991775E+00  4.237362237288E+00  4.223071224856E+00  4.208481919932E+00
  4.193589256517E+00  4.178388140110E+00  4.162873450869E+00  4.147040046979E+00
  4.130882768247E+00  4.114396439920E+00  4.097575876754E+00  4.080415887325E+00
  4.062911278593E+00  4.045056860744E+00  4.026847452300E+00  4.008277885517E+00
  3.989343012080E+00  3.970037709097E+00  3.950356885414E+00  3.930295488249E+00
  3.909848510159E+00  3.889010996350E+00  3.867778052339E+00  3.846144851977E+00
  3.824106645836E+00  3.801658769979E+00  3.778796655113E+00  3.755515836141E+00
  3.731811962103E+00  3.707680806541E+00  3.683118278264E+00  3.658120432544E+00
  3.632683482729E+00  3.606803812294E+00  3.580477987316E+00  3.553702769389E+00
  3.526475128981E+00  3.498792259214E+00  3.470651590095E+00  3.442050803170E+00
  3.412987846614E+00  3.383460950736E+00  3.353468643915E+00  3.323009768927E+00
  3.292083499677E+00  3.260689358313E+00  3.228827232704E+00  3.196497394266E+00
  3.163700516115E+00  3.130437691525E+00  3.096710452663E+00  3.062520789561E+00
  3.027871169318E+00  2.992764555458E+00  2.957204427441E+00  2.921194800254E+00
  2.884740244047E+00  2.847845903762E+00  2.810517518692E+00  2.772761441910E+00
  2.734584659509E+00  2.695994809566E+00  2.657000200778E+00  2.617609830662E+00
  2.577833403254E+00  2.537681346202E+00  2.497164827170E+00  2.456295769436E+00
  2.415086866586E+00  2.373551596191E+00  2.331704232344E+00  2.289559856946E+00
  2.247134369595E+00  2.204444495960E+00  2.161507794508E+00  2.118342661417E+00
  2.074968333563E+00  2.031404889408E+00  1.987673247649E+00  1.943795163480E+00
  1.899793222291E+00  1.855690830680E+00  1.811512204590E+00  1.767282354443E+00
  1.723027067100E+00  1.678772884508E+00  1.634547078884E+00  1.590377624299E+00
  1.546293164529E+00  1.502322977045E+00  1.458496933040E+00  1.414845453373E+00
  1.371399460366E+00  1.328190325359E+00  1.285249811983E+00  1.242610015116E+00
  1.200303295503E+00  1.158362210055E+00  1.116819437873E+00  1.075707702047E+00
  1.035059687349E+00  9.949079539277E-01  9.552848471963E-01  9.162224040930E-01
  8.777522559724E-01  8.399055284054E-01  8.027127382138E-01  7.662036881098E-01
  7.304073593561E-01  6.953518029047E-01  6.610640295226E-01  6.275698994553E-01
  5.948940122260E-01  5.630595972117E-01  5.320884056790E-01  5.020006050064E-01
  4.728146758508E-01  4.445473130546E-01  4.172133311165E-01  3.908255750715E-01
  3.653948376456E-01  3.409297835585E-01  3.174368818517E-01  2.949203471121E-01
  2.733820904472E-01  2.528216810398E-01  2.332363190752E-01  2.146208207841E-01
  1.969676162839E-01  1.802667608275E-01  1.645059599841E-01  1.496706091740E-01
  1.357438478701E-01  1.227066286529E-01  1.105378011688E-01  9.921421089413E-02
  8.871081244778E-02  7.900079702997E-02  7.005573338933E-02  6.184572154200E-02
  5.433955828421E-02  4.750491335840E-02  4.130851495328E-02  3.571634304550E-02
  3.069382892701E-02  2.620605911149E-02  2.221798167941E-02  1.869461300813E-02
  1.560124274443E-02  1.290363481559E-02  1.056822224551E-02  8.562293546965E-03
  6.854168502239E-03  5.413361225422E-03  4.210728520133E-03  3.218601708488E-03
  2.410900309399E-03  1.763226185868E-03  1.252937059167E-03  8.591985991410E-04
  5.630146395681E-04  3.472354295438E-04  1.965442093476E-04  9.742278398904E-05
  3.809715082180E-05  8.464609605390E-06  4.134150938786E-09  5.672104006298E-06
  1.978577246695E-05  3.789707401498E-05  5.665954146016E-05  7.369120324793E-05
  8.743635895165E-05  9.702908226502E-05  1.021611746075E-04  1.029570901235E-04
  9.985807856969E-05  9.351745338273E-05  8.470849796176E-05  7.424608637720E-05
  6.292263011527E-05  5.145848670930E-05  4.046649702080E-05  3.042987382437E-05
  2.169226317257E-05  1.445845847037E-05  8.803979807338E-06  4.691549372034E-06
  1.992405361229E-06  5.104048855431E-07  6.969246992728E-09  2.251158411043E-07
  9.110880960675E-07  1.832422103234E-06  2.791656020657E-06  3.635273445445E-06
  4.257851003786E-06  4.601729943234E-06  4.652829993369E-06  4.433453167241E-06
  3.993072436327E-06  3.398158343006E-06  2.722065438479E-06  2.035886772589E-06
  1.401001946256E-06  8.638115138256E-07  4.528908981449E-07  1.785356055052E-07
  3.443127936543E-08  9.892131098663E-10  4.975763001415E-08  1.482618435711E-07
  2.646448794767E-07  3.715684830849E-07  4.489790914771E-07  4.855244794775E-07
  4.786005936759E-07  4.331897031790E-07  3.597976381284E-07
</data>
</radfunc>
</pseudocore-charge>
<semilocal-potentials set="scalar_relativistic">
<slps n="5" l="s" rc="2.51104723462">
<radfunc>
<data npts="291">
  1.792983830597E+01  1.792560889409E+01  1.791297352877E+01  1.789191925821E+01
  1.786108406891E+01  1.782184046600E+01  1.777198829427E+01  1.771512677703E+01
  1.765147532132E+01  1.757762362944E+01  1.749486150497E+01  1.740547813118E+01
  1.729824212137E+01  1.718715647550E+01  1.707710313998E+01  1.695146011098E+01
  1.680824456451E+01  1.667391826248E+01  1.652454130634E+01  1.635868632066E+01
  1.617485453134E+01  1.601380096403E+01  1.583942971970E+01  1.565091506847E+01
  1.544743163480E+01  1.522816551369E+01  1.499232728278E+01  1.480412004979E+01
  1.460587152354E+01  1.439730739657E+01  1.417818019742E+01  1.394827423256E+01
  1.370741073857E+01  1.345545318148E+01  1.319231262554E+01  1.291795307991E+01
  1.263239671789E+01  1.233572885067E+01  1.213184987869E+01  1.192316193464E+01
  1.170974262100E+01  1.149168461464E+01  1.126909599721E+01  1.104210050339E+01
  1.081083767927E+01  1.057546294363E+01  1.033614754559E+01  1.009307841280E+01
  9.846457885569E+00  9.596503333021E+00  9.343446649010E+00  9.087533626560E+00
  8.829023211167E+00  8.568186634781E+00  8.305306433793E+00  8.040675355942E+00
  7.774595162603E+00  7.507375334394E+00  7.239331689516E+00  6.970784925518E+00
  6.702059096438E+00  6.433480038282E+00  6.165373756718E+00  5.898064791552E+00
  5.631874573078E+00  5.367119785699E+00  5.104110754370E+00  4.973355746163E+00
  4.843149869323E+00  4.713529433130E+00  4.584530064361E+00  4.456186663704E+00
  4.328533363583E+00  4.201603487494E+00  4.075429510950E+00  3.950043024151E+00
  3.825474696462E+00  3.701754242809E+00  3.578910392069E+00  3.456970857556E+00
  3.335962309688E+00  3.215910350907E+00  3.096839492957E+00  2.978773136560E+00
  2.861733553612E+00  2.745741871922E+00  2.630818062609E+00  2.516980930187E+00
  2.404248105426E+00  2.292636041039E+00  2.182160010263E+00  2.072834108376E+00
  1.964671257221E+00  1.857683212773E+00  1.751880575814E+00  1.647272805733E+00
  1.543868237527E+00  1.441674102011E+00  1.340696549280E+00  1.240940675465E+00
  1.142410552771E+00  1.045109262854E+00  9.490389335152E-01  8.542007787238E-01
  7.605951419664E-01  6.682215428941E-01  5.770787272451E-01  4.871647199967E-01
  3.984768816907E-01  3.110119678604E-01  2.247661914674E-01  1.397352882396E-01
  5.591458477870E-02 -2.670093071642E-02 -1.081165352899E-01 -1.883376958397E-01
 -2.673699917348E-01 -3.452190357053E-01 -4.218903933075E-01 -4.973895012987E-01
 -5.717215852958E-01 -6.448915771288E-01 -7.169040323427E-01 -7.877630483410E-01
 -8.574721837077E-01 -9.260343792884E-01 -9.934518816527E-01 -1.059726169606E+00
 -1.124857884459E+00 -1.188846764804E+00 -1.251691586592E+00 -1.313390109328E+00
 -1.373939029248E+00 -1.433333940359E+00 -1.491569304254E+00 -1.548638429615E+00
 -1.604533462344E+00 -1.659245387230E+00 -1.712764042091E+00 -1.765078145245E+00
 -1.816175337188E+00 -1.866042237246E+00 -1.914664515929E+00 -1.962026983616E+00
 -2.008113696075E+00 -2.052908077202E+00 -2.096393059191E+00 -2.138551240156E+00
 -2.179365059034E+00 -2.218816987318E+00 -2.256889736909E+00 -2.293566483082E+00
 -2.328831101184E+00 -2.362668415330E+00 -2.395064456961E+00 -2.426006730668E+00