<?xml version="1.0" encoding="UTF-8" ?>
<psml version="1.1" energy_unit="hartree" length_unit="bohr"
 uuid="5d735640-53a1-11e8-4168-9a42f6de097e"
 xmlns="http://esl.cecam.org/PSML/ns/1.1">
<provenance creator="ONCVPSP-3.3.0+psml-3.3.0-73 (fully-relativistic)"
 date="2018-05-09">
<annotation action="semilocal-pseudopotential-generation"
 action-cont="projectors-generation" />
<input-file name="oncvpsp-input">
<![CDATA[# atsym z nc nv iexc psfile
Sb 51 6 5 -116133 both
# n l f
1 0 2.0
2 0 2.0
2 1 6.0
3 0 2.0
3 1 6.0
3 2 10.0
4 0 2.0
4 1 6.0
4 2 10.0
5 0 2.0
5 1 3.0
# lmax
2
# l rc ep ncon nbas qcut
0 1.3 0.0 4 8 9.4
1 1.3 0.0 4 8 9.6
2 1.5 0.0 4 8 10.0
# lloc lpopt rc5 dvloc0
4 5 1.3 0.0
# l nproj debl
0 2 1.0
1 2 3.0
2 2 1.6
# icmod fcfact rcfact
3 5.0 1.5
# epsh1 epsh2 depsh
-12.0 12.0 0.02
# rlmax drl
6.0 0.01
 0
]]>
</input-file>
</provenance>
<pseudo-atom-spec atomic-label="Sb" atomic-number="51" z-pseudo="23"
 flavor="Hamann&apos;s oncvpsp" relativity="dirac" spin-dft="no"
 core-corrections="yes">
<annotation pseudo-energy="-240.647788338" />
<exchange-correlation>
<annotation oncvpsp-xc-code="-116133" oncvpsp-xc-type="libxc-interface" />
<libxc-info number-of-functionals="2">
<functional name="Perdew, Burke &amp; Ernzerhof SOL (GGA)" type="exchange"
 id="116" />
<functional name="Perdew, Burke &amp; Ernzerhof SOL (GGA)" type="correlation"
 id="133" />
</libxc-info>
</exchange-correlation>
<valence-configuration total-valence-charge="23">
<shell n="4" l="s" occupation="2" />
<shell n="4" l="p" occupation="6" />
<shell n="4" l="d" occupation="10" />
<shell n="5" l="s" occupation="2" />
<shell n="5" l="p" occupation="3" />
</valence-configuration>
</pseudo-atom-spec>
<grid npts="457">
<annotation type="sampled from oncvpsp log grid"
 recipe="r(i:1..N) = r1*exp(a*(i-1)) + r=0; resampled"
 recipe-cont="r1: scale; a: step" scale="0.980392156863E-05"
 step="0.119285708653E-01" delta="0.500000000000E-02" rmax="43.9721684583" />
<grid-data>
  0.000000000000E+00  5.021204018428E-03  1.002946097687E-02  1.504579076758E-02
  2.027345795207E-02  2.543065629312E-02  3.077838077958E-02  3.594118822007E-02
  4.098057695047E-02  4.617247910357E-02  5.140528910190E-02  5.655251270478E-02
  6.221512900910E-02  6.763314664665E-02  7.265117934131E-02  7.804152433212E-02
  8.383180528246E-02  8.898388872515E-02  9.445260573801E-02  1.002574157919E-01
  1.064189742860E-01  1.116197688201E-01  1.170747310341E-01  1.227962823396E-01
  1.287974511941E-01  1.350919027679E-01  1.416939700613E-01  1.468564096257E-01
  1.522069361091E-01  1.577524022190E-01  1.634999103328E-01  1.694568215939E-01
  1.756307653396E-01  1.820296488724E-01  1.886616675873E-01  1.955353154683E-01
  2.026593959664E-01  2.100430332757E-01  2.151143122711E-01  2.203080322266E-01
  2.256271493567E-01  2.310746912507E-01  2.366537585963E-01  2.423675269438E-01
  2.482192485144E-01  2.542122540505E-01  2.603499547123E-01  2.666358440189E-01
  2.730734998369E-01  2.796665864169E-01  2.864188564794E-01  2.933341533502E-01
  3.004164131487E-01  3.076696670278E-01  3.150980434685E-01  3.227057706300E-01
  3.304971787561E-01  3.384767026400E-01  3.466488841485E-01  3.550183748074E-01
  3.635899384487E-01  3.723684539226E-01  3.813589178741E-01  3.905664475873E-01
  3.999962838978E-01  4.096537941763E-01  4.195444753829E-01  4.245790090875E-01
  4.296739571965E-01  4.348300446829E-01  4.400480052191E-01  4.453285812817E-01
  4.506725242571E-01  4.560805945481E-01  4.615535616827E-01  4.670922044229E-01
  4.726973108760E-01  4.783696786065E-01  4.841101147498E-01  4.899194361268E-01
  4.957984693603E-01  5.017480509926E-01  5.077690276045E-01  5.138622559358E-01
  5.200286030070E-01  5.262689462431E-01  5.325841735980E-01  5.389751836812E-01
  5.454428858854E-01  5.519882005160E-01  5.586120589222E-01  5.653154036293E-01
  5.720991884728E-01  5.789643787345E-01  5.859119512793E-01  5.929428946946E-01
  6.000582094310E-01  6.072589079442E-01  6.145460148395E-01  6.219205670176E-01
  6.293836138218E-01  6.369362171876E-01  6.445794517939E-01  6.523144052154E-01
  6.601421780780E-01  6.680638842149E-01  6.760806508255E-01  6.841936186354E-01
  6.924039420590E-01  7.007127893637E-01  7.091213428361E-01  7.176307989501E-01
  7.262423685375E-01  7.349572769600E-01  7.437767642835E-01  7.527020854549E-01
  7.617345104804E-01  7.708753246061E-01  7.801258285014E-01  7.894873384434E-01
  7.989611865048E-01  8.085487207428E-01  8.182513053917E-01  8.280703210564E-01
  8.380071649091E-01  8.480632508880E-01  8.582400098987E-01  8.685388900175E-01
  8.789613566977E-01  8.895088929780E-01  9.001829996938E-01  9.109851956901E-01
  9.219170180384E-01  9.329800222548E-01  9.441757825219E-01  9.555058919122E-01
  9.669719626151E-01  9.785756261665E-01  9.903185336805E-01  1.002202356085E+00
  1.014228784358E+00  1.026399529770E+00  1.038716324127E+00  1.051180920017E+00
  1.063795091057E+00  1.076560632150E+00  1.089479359735E+00  1.102553112052E+00
  1.115783749397E+00  1.129173154390E+00  1.142723232242E+00  1.156435911029E+00
  1.170313141962E+00  1.184356899665E+00  1.198569182461E+00  1.212952012651E+00
  1.227507436802E+00  1.242237526044E+00  1.257144376357E+00  1.272230108873E+00
  1.287496870179E+00  1.302946832621E+00  1.318582194613E+00  1.334405180948E+00
  1.350418043120E+00  1.366623059637E+00  1.383022536353E+00  1.399618806789E+00
  1.416414232470E+00  1.433411203260E+00  1.450612137699E+00  1.468019483352E+00
  1.485635717152E+00  1.503463345758E+00  1.521504905907E+00  1.539762964778E+00
  1.558240120355E+00  1.576939001799E+00  1.595862269821E+00  1.615012617059E+00
  1.634392768463E+00  1.654005481685E+00  1.673853547465E+00  1.693939790035E+00
  1.714267067515E+00  1.734838272325E+00  1.755656331593E+00  1.776724207572E+00
  1.798044898063E+00  1.819621436840E+00  1.841456894082E+00  1.863554376811E+00
  1.885917029333E+00  1.908548033685E+00  1.931450610089E+00  1.954628017410E+00
  1.978083553619E+00  2.001820556262E+00  2.025842402938E+00  2.050152511773E+00
  2.074754341914E+00  2.099651394017E+00  2.124847210745E+00  2.150345377274E+00
  2.176149521801E+00  2.202263316063E+00  2.228690475856E+00  2.255434761566E+00
  2.282499978705E+00  2.309889978449E+00  2.337608658191E+00  2.365659962089E+00
  2.394047881634E+00  2.422776456214E+00  2.451849773688E+00  2.481271970973E+00
  2.511047234624E+00  2.541179801440E+00  2.571673959057E+00  2.602534046566E+00
  2.633764455124E+00  2.665369628586E+00  2.697354064129E+00  2.729722312899E+00
  2.762478980653E+00  2.795628728421E+00  2.829176273162E+00  2.863126388440E+00
  2.897483905101E+00  2.932253711963E+00  2.967440756506E+00  3.003050045584E+00
  3.039086646131E+00  3.075555685885E+00  3.112462354115E+00  3.149811902365E+00
  3.187609645193E+00  3.225860960936E+00  3.264571292467E+00  3.303746147976E+00
  3.343391101752E+00  3.383511794973E+00  3.424113936513E+00  3.465203303751E+00
  3.506785743396E+00  3.548867172317E+00  3.591453578385E+00  3.634551021325E+00
  3.678165633581E+00  3.722303621184E+00  3.766971264638E+00  3.812174919814E+00
  3.857921018852E+00  3.904216071078E+00  3.951066663931E+00  3.998479463898E+00
  4.046461217465E+00  4.095018752074E+00  4.144158977099E+00  4.193888884824E+00
  4.244215551442E+00  4.295146138060E+00  4.346687891716E+00  4.398848146417E+00
  4.451634324174E+00  4.505053936064E+00  4.559114583297E+00  4.613823958296E+00
  4.669189845796E+00  4.725220123945E+00  4.781922765433E+00  4.839305838618E+00
  4.897377508681E+00  4.956146038786E+00  5.015619791251E+00  5.075807228746E+00
  5.136716915491E+00  5.198357518477E+00  5.260737808699E+00  5.323866662403E+00
  5.387753062352E+00  5.452406099100E+00  5.517834972289E+00  5.584048991957E+00
  5.651057579860E+00  5.718870270818E+00  5.787496714068E+00  5.856946674637E+00
  5.927230034733E+00  5.998356795150E+00  6.070337076691E+00  6.143181121612E+00
  6.216899295071E+00  6.291502086612E+00  6.367000111651E+00  6.443404112991E+00
  6.520724962347E+00  6.598973661895E+00  6.678161345838E+00  6.758299281988E+00
  6.839398873372E+00  6.921471659852E+00  7.004529319770E+00  7.088583671608E+00
  7.173646675667E+00  7.259730435775E+00  7.346847201004E+00  7.435009367416E+00
  7.524229479825E+00  7.614520233583E+00  7.705894476386E+00  7.798365210103E+00
  7.891945592624E+00  7.986648939736E+00  8.082488727012E+00  8.179478591737E+00
  8.277632334837E+00  8.376963922855E+00  8.477487489930E+00  8.579217339809E+00
  8.682167947887E+00  8.786353963261E+00  8.891790210820E+00  8.998491693350E+00
  9.106473593670E+00  9.215751276794E+00  9.326340292116E+00  9.438256375621E+00
  9.551515452129E+00  9.666133637554E+00  9.782127241205E+00  9.899512768099E+00
  1.001830692132E+01  1.013852660437E+01  1.026018892362E+01  1.038331119071E+01
  1.050791092500E+01  1.063400585610E+01  1.076161392637E+01  1.089075329349E+01
  1.102144233301E+01  1.115369964100E+01  1.128754403670E+01  1.142299456514E+01
  1.156007049992E+01  1.169879134592E+01  1.183917684207E+01  1.198124696417E+01
  1.212502192774E+01  1.227052219088E+01  1.241776845717E+01  1.256678167865E+01
  1.271758305880E+01  1.287019405550E+01  1.302463638417E+01  1.318093202078E+01
  1.333910320503E+01  1.349917244349E+01  1.366116251281E+01  1.382509646296E+01
  1.399099762052E+01  1.415888959197E+01  1.432879626707E+01  1.450074182227E+01
  1.467475072414E+01  1.485084773283E+01  1.502905790562E+01  1.520940660049E+01
  1.539191947970E+01  1.557662251345E+01  1.576354198362E+01  1.595270448742E+01
  1.614413694127E+01  1.633786658456E+01  1.653392098358E+01  1.673232803538E+01
  1.693311597181E+01  1.713631336347E+01  1.734194912383E+01  1.755005251332E+01
  1.776065314347E+01  1.797378098120E+01  1.818946635297E+01  1.840773994921E+01
  1.862863282860E+01  1.885217642254E+01  1.907840253961E+01  1.930734337009E+01
  1.953903149053E+01  1.977349986841E+01  2.001078186683E+01  2.025091124924E+01
  2.049392218423E+01  2.073984925044E+01  2.098872744144E+01  2.124059217074E+01
  2.149547927679E+01  2.175342502811E+01  2.201446612845E+01  2.227863972199E+01
  2.254598339865E+01  2.281653519944E+01  2.309033362183E+01  2.336741762529E+01
  2.364782663680E+01  2.393160055644E+01  2.421877976311E+01  2.450940512027E+01
  2.480351798172E+01  2.510116019750E+01  2.540237411987E+01  2.570720260930E+01
  2.601568904062E+01  2.632787730910E+01  2.664381183681E+01  2.696353757885E+01
  2.728710002980E+01  2.761454523016E+01  2.794591977292E+01  2.828127081020E+01
  2.862064605992E+01  2.896409381264E+01  2.931166293839E+01  2.966340289365E+01
  3.001936372837E+01  3.037959609311E+01  3.074415124623E+01  3.111308106119E+01
  3.148643803392E+01  3.186427529033E+01  3.224664659381E+01  3.263360635294E+01
  3.302520962917E+01  3.342151214472E+01  3.382257029046E+01  3.422844113394E+01
  3.463918242755E+01  3.505485261668E+01  3.547551084808E+01  3.590121697826E+01
  3.633203158200E+01  3.676801596098E+01  3.720923215251E+01  3.765574293834E+01
  3.810761185360E+01  3.856490319585E+01  3.902768203420E+01  3.949601421861E+01
  3.996996638923E+01  4.044960598590E+01  4.093500125773E+01  4.142622127283E+01
  4.192333592810E+01  4.242641595924E+01  4.293553295075E+01  4.345075934616E+01
  4.397216845831E+01
</grid-data>
</grid>
<valence-charge total-charge="23" is-unscreening-charge="yes"
 rescaled-to-z-pseudo="no">
<radfunc>
<data npts="457">
  7.314696516405E+00  7.320189676611E+00  7.336612724990E+00  7.364019249718E+00
  7.404250046421E+00  7.455610615401E+00  7.521113638118E+00  7.596181353361E+00
  7.680664306523E+00  7.779287338351E+00  7.890583461481E+00  8.011710508323E+00
  8.158313235314E+00  8.311670752931E+00  8.465118001979E+00  8.642168311092E+00
  8.846440909165E+00  9.040450933271E+00  9.258988079427E+00  9.505129341357E+00
  9.782326655698E+00  1.002902888066E+01  1.030026311698E+01  1.059842149924E+01
  1.092611337181E+01  1.128617970816E+01  1.168170668226E+01  1.200362422990E+01
  1.234887207598E+01  1.271904461296E+01  1.311582260551E+01  1.354097250598E+01
  1.399634423697E+01  1.448386704507E+01  1.500554295465E+01  1.556343726608E+01
  1.615966544784E+01  1.679637566717E+01  1.724440534370E+01  1.771202277813E+01
  1.819985596910E+01  1.870851943378E+01  1.923860812411E+01  1.979069047546E+01
  2.036530050464E+01  2.096292887174E+01  2.158401281885E+01  2.222892489852E+01
  2.289796040714E+01  2.359132344262E+01  2.430911151341E+01  2.505129863663E+01
  2.581771687884E+01  2.660803631310E+01  2.742174339253E+01  2.825811777363E+01
  2.911620766355E+01  2.999480381496E+01  3.089241235075E+01  3.180722667025E+01
  3.273709876810E+01  3.367951038801E+01  3.463154453571E+01  3.558985798780E+01
  3.655065555592E+01  3.750966699526E+01  3.846212758193E+01  3.893427340939E+01
  3.940276351983E+01  3.986685775234E+01  4.032578347074E+01  4.077873573454E+01
  4.122487762353E+01  4.166334072886E+01  4.209322582333E+01  4.251360372373E+01
  4.292351635832E+01  4.332197805181E+01  4.370797704059E+01  4.408047722996E+01
  4.443842020487E+01  4.478072750477E+01  4.510630317222E+01  4.541403658374E+01
  4.570280557009E+01  4.597147983136E+01  4.621892465078E+01  4.644400490860E+01
  4.664558939534E+01  4.682255542127E+01  4.697379371557E+01  4.709821360616E+01
  4.719474846744E+01  4.726236141968E+01  4.730005126007E+01  4.730685860149E+01
  4.728187219064E+01  4.722423537335E+01  4.713315267005E+01  4.700789642027E+01
  4.684781345062E+01  4.665233171620E+01  4.642096686157E+01  4.615332864311E+01
  4.584912715124E+01  4.550817876764E+01  4.513041178975E+01  4.471587165293E+01
  4.426472567888E+01  4.377726727823E+01  4.325391953554E+01  4.269523810570E+01
  4.210191335306E+01  4.147477166760E+01  4.081477589699E+01  4.012302483872E+01
  3.940075174341E+01  3.864932178827E+01  3.787022848889E+01  3.706508902802E+01
  3.623563849124E+01  3.538372301201E+01  3.451129184191E+01  3.362038837563E+01
  3.271314017514E+01  3.179174805189E+01  3.085847428091E+01  2.991563003519E+01
  2.896556214275E+01  2.801063928218E+01  2.705323774423E+01  2.609572689814E+01
  2.514045450990E+01  2.418973206705E+01  2.324582026890E+01  2.231091484371E+01
  2.138713285382E+01  2.047649964685E+01  1.958093660509E+01  1.870224983711E+01
  1.784211994392E+01  1.700209297909E+01  1.618357270597E+01  1.538781423759E+01
  1.461591912572E+01  1.386883194495E+01  1.314733839676E+01  1.245206493712E+01
  1.178347991017E+01  1.114189615011E+01  1.052747499427E+01  9.940231632480E+00
  9.380041701976E+00  8.846649023240E+00  8.339674360436E+00  7.858625080773E+00
  7.402905579959E+00  6.971828336006E+00  6.564625450660E+00  6.180460536543E+00
  5.818440808457E+00  5.477629238801E+00  5.157057894463E+00  4.855745748281E+00
  4.572718018936E+00  4.307013367963E+00  4.057690835012E+00  3.823835529077E+00
  3.604563567564E+00  3.399026032552E+00  3.206411944056E+00  3.025950227384E+00
  2.856910673917E+00  2.698603915142E+00  2.550379574233E+00  2.411620394440E+00
  2.281734968693E+00  2.160158126056E+00  2.046350936101E+00  1.939800675333E+00
  1.840020648915E+00  1.746549883518E+00  1.658952706421E+00  1.576818225206E+00
  1.499759721544E+00  1.427413971718E+00  1.359440505654E+00  1.295520815344E+00
  1.235357522733E+00  1.178673516285E+00  1.125211064710E+00  1.074730915554E+00
  1.027011385702E+00  9.818474501698E-01  9.390498349348E-01  8.984441189936E-01
  8.598698502443E-01  8.231796792684E-01  7.882385145598E-01  7.549227022531E-01
  7.231192329209E-01  6.927249775601E-01  6.636459544520E-01  6.357966281830E-01
  6.090992417391E-01  5.834831822474E-01  5.588843806290E-01  5.352447451544E-01
  5.125116286478E-01  4.906373288757E-01  4.695786214729E-01  4.492963246063E-01
  4.297548944442E-01  4.109220503992E-01  3.927684290239E-01  3.752672653772E-01
  3.583941006293E-01  3.421265146405E-01  3.264438822309E-01  3.113271518485E-01
  2.967586453443E-01  2.827218775762E-01  2.692013945799E-01  2.561826290676E-01
  2.436517720500E-01  2.315956594147E-01  2.200016722845E-01  2.088576501461E-01
  1.981518156163E-01  1.878727098798E-01  1.780091378358E-01  1.685501220414E-01
  1.594848645903E-01  1.508027161146E-01  1.424931511446E-01  1.345457491090E-01
  1.269501803078E-01  1.196961962330E-01  1.127736236621E-01  1.061723619882E-01
  9.988238329980E-02  9.389373475926E-02  8.819654287216E-02  8.278101927798E-02
  7.763746772783E-02  7.275629195436E-02  6.812800416516E-02  6.374323393079E-02
  5.959273726108E-02  5.566740571147E-02  5.195827534167E-02  4.845653543294E-02
  4.515353684996E-02  4.204079997007E-02  3.911002211831E-02  3.635308446305E-02
  3.376205834045E-02  3.132921098814E-02  2.904701067730E-02  2.690813124016E-02
  2.490545599480E-02  2.303208107322E-02  2.128131816012E-02  1.964669665159E-02
  1.812196524234E-02  1.670109295026E-02  1.537826958647E-02  1.414790567867E-02
  1.300463185578E-02  1.194329770238E-02  1.095897009271E-02  1.004693101585E-02
  9.202674906426E-03  8.421905497796E-03  7.700532218421E-03  7.034666155433E-03
  6.420615613072E-03  5.854881297022E-03  5.334151158746E-03  4.855294936554E-03
  4.415358432180E-03  4.011557563082E-03  3.641272231509E-03  3.302040051470E-03
  2.991549974280E-03  2.707635852285E-03  2.448269978753E-03  2.211556639894E-03
  1.995725712555E-03  1.799126338413E-03  1.620220702613E-03  1.457577941703E-03
  1.309868202640E-03  1.175856871498E-03  1.054398987442E-03  9.444338545544E-04
  8.449798612720E-04  7.551295144863E-04  6.740446929074E-04  6.009521219976E-04
  5.351390707324E-04  4.759492686320E-04  4.227790399110E-04  3.750736502487E-04
  3.323238605498E-04  2.940626811617E-04  2.598623193114E-04  2.293313120132E-04
  2.021118363605E-04  1.778771889304E-04  1.563294259764E-04  1.371971561436E-04
  1.202334775957E-04  1.052140516595E-04  9.193530537503E-05  8.021275564721E-05
  6.987944803337E-05  6.078450354325E-05  5.279176717499E-05  4.577855224699E-05
  3.963447490953E-05  3.426037352710E-05  2.956730790939E-05  2.547563363643E-05
  2.191414697039E-05  1.881929607460E-05  1.613445447143E-05  1.380925286538E-05
  1.179896563964E-05  1.006394850422E-05  8.569123934586E-06  7.283511192263E-06
  6.179797865722E-06  5.233950011418E-06  4.424858112801E-06  3.734016209874E-06
  3.145231684163E-06  2.644363314032E-06  2.219085343344E-06  1.858675432478E-06
  1.553824484595E-06  1.296466461531E-06  1.079626422621E-06  8.972851356666E-07
  7.442587219579E-07  6.160919064084E-07  5.089635490540E-07  4.196032352966E-07
  3.452177989646E-07  2.834267444047E-07  2.322056212370E-07  1.898364880030E-07
  1.548646786691E-07  1.260611588038E-07  1.023898262608E-07  8.297917445173E-08
  6.709779488242E-08  5.413324969647E-08  4.357389468424E-08  3.499327875303E-08
  2.803678741841E-08  2.241023567817E-08  1.787014988803E-08  1.421550919743E-08
  1.128074494944E-08  8.929821425430E-09  7.051243642954E-09  5.553857808739E-09
  4.363327694485E-09  3.419185839456E-09  2.672372278812E-09  2.083185627160E-09
  1.619581979922E-09  1.255766385326E-09  9.710297307868E-10  7.487909115548E-10
  5.758102278607E-10  4.415451999692E-10  3.376244989382E-10  2.574195550077E-10
  1.956967069409E-10  1.483355671995E-10  1.121016645611E-10  8.446344534657E-11
  6.344541777205E-11  4.751065593561E-11  3.546707988367E-11  2.639293039509E-11
  1.957769139762E-11  1.447540512499E-11  1.066789751427E-11  7.835903079252E-12
  5.736465959962E-12  4.185311012840E-12  3.043137532998E-12  2.204998526468E-12
  1.592098833957E-12  1.145482948051E-12  8.211939996967E-13  5.865740619189E-13
  4.174467317192E-13  2.959792954824E-13  2.090664500165E-13  1.471128290149E-13
  1.031193421828E-13  7.200009167938E-14  5.007361946583E-14  3.468545328125E-14
  2.392915678581E-14  1.644098989515E-14  1.124935772038E-14  7.664874955086E-15
  5.200416388154E-15  3.513214785228E-15  2.363101586647E-15  1.582517336887E-15
  1.055066813251E-15  7.002507298233E-16  4.626427245428E-16  3.042514123115E-16
  1.991544503042E-16  1.297458645809E-16  8.412370207333E-17  5.427995941689E-17
  3.485231011284E-17  2.226736672716E-17  1.415550576460E-17  8.953128855344E-18
  5.633658819444E-18  3.526513282743E-18  2.195899430055E-18  1.360077367023E-18
  8.378590256402E-19  5.133410293241E-19  3.127805551124E-19  1.895146452834E-19
  1.094192172128E-19  6.562986929183E-20  3.913600253372E-20  2.319983484182E-20
  0.000000000000E+00  0.000000000000E+00  0.000000000000E+00  0.000000000000E+00
  0.000000000000E+00  0.000000000000E+00  0.000000000000E+00  0.000000000000E+00
  0.000000000000E+00  0.000000000000E+00  0.000000000000E+00  0.000000000000E+00
  0.000000000000E+00  0.000000000000E+00  0.000000000000E+00  0.000000000000E+00
  0.000000000000E+00
</data>
</radfunc>
</valence-charge>
<pseudocore-charge matching-radius="0.520028603007"
 number-of-continuous-derivatives="4">
<annotation model-charge-form="Teter function with specified parameters" />
<radfunc>
<data npts="291">
  2.488375203970E+02  2.488049455353E+02  2.487075805219E+02  2.485451829210E+02
  2.483069839800E+02  2.480032134161E+02  2.476163253262E+02  2.471736675827E+02
  2.466764085200E+02  2.460971436161E+02  2.454450102900E+02  2.447371445982E+02
  2.438829810900E+02  2.429924527944E+02  2.421044269617E+02  2.410835149676E+02
  2.399104993030E+02  2.388011685060E+02  2.375570487466E+02  2.361625801252E+02
  2.346006258589E+02  2.332178889822E+02  2.317055130321E+02  2.300523098524E+02
  2.282463282281E+02  2.262748462597E+02  2.241243754314E+02  2.223855240855E+02
  2.205317277259E+02  2.185565040791E+02  2.164531773385E+02  2.142149018010E+02
  2.118346917204E+02  2.093054582267E+02  2.066200542268E+02  2.037713282520E+02
  2.007521882694E+02  1.975556764982E+02  1.953227899998E+02  1.930061496617E+02
  1.906039120419E+02  1.881143275178E+02  1.855357575910E+02  1.828666935647E+02
  1.801057766234E+02  1.772518193350E+02  1.743038285770E+02  1.712610298767E+02
  1.681228931313E+02  1.648891596524E+02  1.615598704531E+02  1.581353956632E+02
  1.546164649248E+02  1.510041985801E+02  1.473001394204E+02  1.435062847161E+02
  1.396251181953E+02  1.356596415816E+02  1.316134052399E+02  1.274905374161E+02
  1.232957714873E+02  1.190344705733E+02  1.147126487886E+02  1.103369883490E+02
  1.059148516818E+02  1.014542876319E+02  9.696403080744E+01  9.471068276710E+01
  9.245349307328E+01  9.019374118363E+01  8.793274618098E+01  8.567186567504E+01
  8.341249452700E+01  8.115606338981E+01  7.890403705751E+01  7.665791261719E+01
  7.441921739788E+01  7.218950671119E+01  6.997036137927E+01  6.776338504645E+01
  6.557020127184E+01  6.339245040114E+01  6.123178621717E+01  5.908987236971E+01
  5.696837858675E+01  5.486897667050E+01  5.279333628338E+01  5.074312053066E+01
  4.871998134837E+01  4.672555470680E+01  4.476145564237E+01  4.282927313209E+01
  4.093056482759E+01  3.906685166766E+01  3.723961239051E+01  3.545027796943E+01
  3.370022599783E+01  3.199077505184E+01  3.032317906130E+01  2.869862172173E+01
  2.711821098253E+01  2.558297364837E+01  2.409385013280E+01  2.265168940460E+01
  2.125724416913E+01  1.991116632793E+01  1.861400276069E+01  1.736619147434E+01
  1.616805816401E+01  1.501981323036E+01  1.392154929690E+01  1.287323926955E+01
  1.187473497891E+01  1.092576644299E+01  1.002594178526E+01  9.174747838879E+00
  8.371551463689E+00  7.615601597364E+00  6.906032056403E+00  6.241865096286E+00
  5.622015732803E+00  5.045296819635E+00  4.510424868315E+00  4.016026588838E+00
  3.560646119927E+00  3.142752908906E+00  2.760750191830E+00  2.412984015228E+00
  2.097752731675E+00  1.813316892572E+00  1.557909453216E+00  1.329746197527E+00
  1.127036283052E+00  9.479928011071E-01  7.908432424149E-01  6.538397555697E-01
  5.352690841797E-01  4.334620688627E-01  3.468026024696E-01  2.737359311096E-01
  2.127761998181E-01  1.625131500611E-01  1.216178866970E-01  8.884764443793E-02
  6.304949814190E-02  4.316297724445E-02  2.822156204145E-02  1.735305807787E-02
  9.778864203133E-03  4.812169517824E-03  1.855133999097E-03  3.951265612385E-04
  1.121708536513E-07  3.132958705477E-04  1.047145658799E-03  1.976927641486E-03
  2.933895273829E-03  3.798279478761E-03  4.492227673868E-03  4.972837084268E-03
  5.225421104572E-03  5.257136975685E-03  5.091088880759E-03  4.761003105255E-03
  4.306551658120E-03  3.769378358183E-03  3.189857612018E-03  2.604591798970E-03
  2.044629248639E-03  1.534362181243E-03  1.091043597322E-03  7.248447997281E-04
  4.393617446192E-04  2.324693287795E-04  9.741841021234E-05  2.407098011863E-05
  1.743587014621E-07  1.258521728339E-05  4.836802597804E-05  9.570935302925E-05
  1.446082755899E-04  1.873228485334E-04  2.185719036067E-04  2.355092199324E-04
  2.375022241996E-04  2.257589334580E-04  2.028541895425E-04  1.722090091570E-04
  1.375750935111E-04  1.025705695431E-04  7.030357069398E-05  4.310829256497E-05
  2.240486469343E-05  8.681050916480E-06  1.581695063284E-06  8.209193417132E-08
  2.714955469006E-06  7.817897450205E-06  1.376943319499E-05  1.918618203928E-05
  2.306142175352E-05  2.483446266040E-05  2.439020776440E-05  2.199749056053E-05
  1.820217642098E-05  1.369568586423E-05  9.181044999632E-06  5.256745946397E-06
  2.334032729473E-06  5.965499996885E-07  3.722613871862E-09  0.000000000000E+00
  0.000000000000E+00  0.000000000000E+00  0.000000000000E+00  0.000000000000E+00
  0.000000000000E+00  0.000000000000E+00  0.000000000000E+00  0.000000000000E+00
  0.000000000000E+00  0.000000000000E+00  0.000000000000E+00  0.000000000000E+00
  0.000000000000E+00  0.000000000000E+00  0.000000000000E+00  0.000000000000E+00
  0.000000000000E+00  0.000000000000E+00  0.000000000000E+00  0.000000000000E+00
  0.000000000000E+00  0.000000000000E+00  0.000000000000E+00  0.000000000000E+00
  0.000000000000E+00  0.000000000000E+00  0.000000000000E+00  0.000000000000E+00
  0.000000000000E+00  0.000000000000E+00  0.000000000000E+00  0.000000000000E+00
  0.000000000000E+00  0.000000000000E+00  0.000000000000E+00  0.000000000000E+00
  0.000000000000E+00  0.000000000000E+00  0.000000000000E+00  0.000000000000E+00
  0.000000000000E+00  0.000000000000E+00  0.000000000000E+00  0.000000000000E+00
  0.000000000000E+00  0.000000000000E+00  0.000000000000E+00  0.000000000000E+00
  0.000000000000E+00  0.000000000000E+00  0.000000000000E+00  0.000000000000E+00
  0.000000000000E+00  0.000000000000E+00  0.000000000000E+00  0.000000000000E+00
  0.000000000000E+00  0.000000000000E+00  0.000000000000E+00  0.000000000000E+00
  0.000000000000E+00  0.000000000000E+00  0.000000000000E+00  0.000000000000E+00
  0.000000000000E+00  0.000000000000E+00  0.000000000000E+00  0.000000000000E+00
  0.000000000000E+00  0.000000000000E+00  0.000000000000E+00  0.000000000000E+00
  0.000000000000E+00  0.000000000000E+00  0.000000000000E+00  0.000000000000E+00
  0.000000000000E+00  0.000000000000E+00  0.000000000000E+00
</data>
</radfunc>
</pseudocore-charge>
<semilocal-potentials set="scalar_relativistic">
<slps n="4" l="s" rc="1.30294683262">
<radfunc>
<data npts="291">
 -2.262801731989E+01 -2.262971246997E+01 -2.263477828284E+01 -2.264322466196E+01
 -2.265560668334E+01 -2.267138547458E+01 -2.269146256921E+01 -2.271440756486E+01
 -2.274014948644E+01 -2.277009225912E+01 -2.280374457244E+01 -2.284020451049E+01
 -2.288410520292E+01 -2.292976495013E+01 -2.297518482099E+01 -2.302726401980E+01
 -2.308692132884E+01 -2.314316199868E+01 -2.320603108649E+01 -2.327624063205E+01
 -2.335456098069E+01 -2.342361183995E+01 -2.349883296518E+01 -2.358069642498E+01
 -2.366969418615E+01 -2.376633533105E+01 -2.387114227237E+01 -2.395542543331E+01
 -2.404482538588E+01 -2.413956599508E+01 -2.423986783977E+01 -2.434594573488E+01
 -2.445800588216E+01 -2.457624261958E+01 -2.470083473988E+01 -2.483194135069E+01
 -2.496969725123E+01 -2.511420780394E+01 -2.521433708783E+01 -2.531751142358E+01
 -2.542373269871E+01 -2.553299286543E+01 -2.564527297420E+01 -2.576054216183E+01
 -2.587875659566E+01 -2.599985837560E+01 -2.612377439668E+01 -2.625041517497E+01
 -2.637967364053E+01 -2.651142390180E+01 -2.664551998622E+01 -2.678179456282E+01
 -2.692005765331E+01 -2.706009533883E+01 -2.720166847050E+01 -2.734451139280E+01
 -2.748833068971E+01 -2.763280396471E+01 -2.777757866649E+01 -2.792227097386E+01
 -2.806646475397E+01 -2.820971060990E+01 -2.835152503446E+01 -2.849138968880E+01
 -2.862875082600E+01 -2.876301888104E+01 -2.889356825039E+01 -2.895724306627E+01
 -2.901973728604E+01 -2.908096261010E+01 -2.914082852985E+01 -2.919924235004E+01
 -2.925610921613E+01 -2.931133214665E+01 -2.936481207090E+01 -2.941644787228E+01
 -2.946613643736E+01 -2.951377271099E+01 -2.955924975772E+01 -2.960245882967E+01
 -2.964328944112E+01 -2.968162945006E+01 -2.971736514680E+01 -2.975038134998E+01
 -2.978056151004E+01 -2.980778782027E+01 -2.983194133583E+01 -2.985290210047E+01
 -2.987054928142E+01 -2.988476131220E+01 -2.989541604366E+01 -2.990239090295E+01
 -2.990556306064E+01 -2.990480960570E+01 -2.990000772832E+01 -2.989103491027E+01
 -2.987776912271E+01 -2.986008903095E+01 -2.983787420592E+01 -2.981100534191E+01
 -2.977936447996E+01 -2.974283523652E+01 -2.970130303657E+01 -2.965465535058E+01
 -2.960278193454E+01 -2.954557507223E+01 -2.948292981892E+01 -2.941474424546E+01
 -2.934091968205E+01 -2.926136096060E+01 -2.917597665493E+01 -2.908467931795E+01
 -2.898738571499E+01 -2.888401705295E+01 -2.877449920460E+01 -2.865876292812E+01
 -2.853674408192E+01 -2.840838383545E+01 -2.827362887686E+01 -2.813243161946E+01
 -2.798475040913E+01 -2.783054973579E+01 -2.766980045332E+01 -2.750248001296E+01
 -2.732857271676E+01 -2.714806999918E+01 -2.696097074639E+01 -2.676728166486E+01
 -2.656701771312E+01 -2.636020261247E+01 -2.614686945568E+01 -2.592706143534E+01
 -2.570083271660E+01 -2.546824948305E+01 -2.522939118780E+01 -2.498435204601E+01
 -2.473324280959E+01 -2.447619286848E+01 -2.421335272804E+01 -2.394489691540E+01
 -2.367102737202E+01 -2.339197739205E+01 -2.310801616863E+01 -2.281945401002E+01
 -2.252664828569E+01 -2.223001015773E+01 -2.193001214379E+01 -2.162719654413E+01
 -2.132218474563E+01 -2.101568738810E+01 -2.070851534279E+01 -2.040159140761E+01