In    ONCVPSP-3.3.0  r_core=   2.10853   2.37566   3.12562
49.0000      3.0000      180430    zatom,zion,pspd
8 -116133   2     4   600     0    pspcod,pspxc,lmax,lloc,mmax,r2well
5.99000000  5.00000000  0.00000000    rchrg fchrg qchrg
2     4     4     0    nproj
3     1           extension_switch
4     4     0    nprojso
0                         1.9178061744661D+00  1.3223972095135D+01
1  0.0000000000000D+00  1.9894419445166D-10 -1.9948831475602D-10
2  1.0000000000000D-02 -4.0221927330060D-02  5.9305343326114D-02
3  2.0000000000000D-02 -8.0172116408690D-02  1.1833010366261D-01
4  3.0000000000000D-02 -1.1958040645677D-01  1.7679531748144D-01
5  4.0000000000000D-02 -1.5817978257791D-01  2.3442525095979D-01
6  5.0000000000000D-02 -1.9570792609543D-01  2.9094899183835D-01
7  6.0000000000000D-02 -2.3190873790499D-01  3.4610201382753D-01
8  7.0000000000000D-02 -2.6653382608177D-01  3.9962770464555D-01
9  8.0000000000000D-02 -2.9934394918042D-01  4.5127884897158D-01
10  9.0000000000000D-02 -3.3011040691251D-01  5.0081905784468D-01
11  1.0000000000000D-01 -3.5861637017940D-01  5.4802413633366D-01
12  1.1000000000000D-01 -3.8465814277716D-01  5.9268338164196D-01
13  1.2000000000000D-01 -4.0804634747123D-01  6.3460080419486D-01
14  1.3000000000000D-01 -4.2860702956178D-01  6.7359626468065D-01
15  1.4000000000000D-01 -4.4618267152261D-01  7.0950652048123D-01
16  1.5000000000000D-01 -4.6063311279478D-01  7.4218617542824D-01
17  1.6000000000000D-01 -4.7183636934936D-01  7.7150852735636D-01
18  1.7000000000000D-01 -4.7968934819728D-01  7.9736630849180D-01
19  1.8000000000000D-01 -4.8410845261672D-01  8.1967231431005D-01
20  1.9000000000000D-01 -4.8503007448579D-01  8.3835991711766D-01
21  2.0000000000000D-01 -4.8241097074775D-01  8.5338346125662D-01
22  2.1000000000000D-01 -4.7622852169350D-01  8.6471853749215D-01
23  2.2000000000000D-01 -4.6648086941894D-01  8.7236213482264D-01
24  2.3000000000000D-01 -4.5318693549847D-01  8.7633266864040D-01
25  2.4000000000000D-01 -4.3638631760774D-01  8.7666988486928D-01
26  2.5000000000000D-01 -4.1613906552333D-01  8.7343464040792D-01
27  2.6000000000000D-01 -3.9252533762292D-01  8.6670856091000D-01
28  2.7000000000000D-01 -3.6564493969991D-01  8.5659357763218D-01
29  2.8000000000000D-01 -3.3561674859044D-01  8.4321134577318D-01
30  2.9000000000000D-01 -3.0257802378180D-01  8.2670254740848D-01
31  3.0000000000000D-01 -2.6668361082802D-01  8.0722608279191D-01
32  3.1000000000000D-01 -2.2810504103462D-01  7.8495815444326D-01
33  3.2000000000000D-01 -1.8702953248886D-01  7.6009124906689D-01
34  3.3000000000000D-01 -1.4365889809895D-01  7.3283302294593D-01
35  3.4000000000000D-01 -9.8208366862738D-02  7.0340509702731D-01
36  3.5000000000000D-01 -5.0905325110471D-02  6.7204176845019D-01
37  3.6000000000000D-01 -1.9879849530668D-03  6.3898864577229D-01
38  3.7000000000000D-01  4.8296012385003D-02  6.0450121561091D-01
39  3.8000000000000D-01  9.9691050264194D-02  5.6884334883601D-01
40  3.9000000000000D-01  1.5193503891578D-01  5.3228575482913D-01
41  4.0000000000000D-01  2.0476095755882D-01  4.9510439265022D-01
42  4.1000000000000D-01  2.5789842732899D-01  4.5757884823487D-01
43  4.2000000000000D-01  3.1107530578898D-01  4.1999068697234D-01
44  4.3000000000000D-01  3.6401929363155D-01  3.8262179119101D-01
45  4.4000000000000D-01  4.1645954408314D-01  3.4575269219883D-01
46  4.5000000000000D-01  4.6812826546683D-01  3.0966090659271D-01
47  4.6000000000000D-01  5.1876230739181D-01  2.7461928656085D-01
48  4.7000000000000D-01  5.6810472110020D-01  2.4089439385497D-01
49  4.8000000000000D-01  6.1590628462294D-01  2.0874490700663D-01
50  4.9000000000000D-01  6.6192698357356D-01  1.7842007120133D-01
51  5.0000000000000D-01  7.0593743864067D-01  1.5015820000876D-01
52  5.1000000000000D-01  7.4772027112759D-01  1.2418523789587D-01
53  5.2000000000000D-01  7.8707139822772D-01  1.0071339212495D-01
54  5.3000000000000D-01  8.2380125011675D-01  7.9939842260535D-02
55  5.4000000000000D-01  8.5773590138400D-01  6.2045535081867D-02
56  5.5000000000000D-01  8.8871810981543D-01  4.7194072219768D-02
57  5.6000000000000D-01  9.1660825607441D-01  3.5530697315064D-02
58  5.7000000000000D-01  9.4128517840240D-01  2.7181388929656D-02
59  5.8000000000000D-01  9.6264689707750D-01  2.2252064834890D-02
60  5.9000000000000D-01  9.8061122401742D-01  2.0827902660249D-02
61  6.0000000000000D-01  9.9511625359720D-01  2.2972781208285D-02
62  6.1000000000000D-01  1.0061207314597D+00  2.8728846037573D-02
63  6.2000000000000D-01  1.0136042988305D+00  3.8116202184940D-02
64  6.3000000000000D-01  1.0175676106022D+00  5.1132736145412D-02
65  6.4000000000000D-01  1.0180323262165D+00  6.7754068463608D-02
66  6.5000000000000D-01  1.0150409731532D+00  8.7933637506820D-02
67  6.6000000000000D-01  1.0086566836138D+00  1.1160291420466D-01
68  6.7000000000000D-01  9.9896280577191D-01  1.3867174675214D-01
69  6.8000000000000D-01  9.8606239173782D-01  1.6902883348259D-01
70  6.9000000000000D-01  9.7007756515693D-01  2.0254232133905D-01
71  7.0000000000000D-01  9.5114877211069D-01  2.3906052660539D-01
72  7.1000000000000D-01  9.2943391972650D-01  2.7841277380709D-01
73  7.2000000000000D-01  9.0510740761348D-01  3.2041034796245D-01
74  7.3000000000000D-01  8.7835905792158D-01  3.6484755466371D-01
75  7.4000000000000D-01  8.4939295047152D-01  4.1150288179596D-01
76  7.5000000000000D-01  8.1842617001310D-01  4.6014025606664D-01
77  7.6000000000000D-01  7.8568747323917D-01  5.1051038692258D-01
78  7.7000000000000D-01  7.5141588370664D-01  5.6235218987905D-01
79  7.8000000000000D-01  7.1585922328934D-01  6.1539428078155D-01
80  7.9000000000000D-01  6.7927258920937D-01  6.6935653206784D-01
81  8.0000000000000D-01  6.4191678605926D-01  7.2395168169813D-01
82  8.1000000000000D-01  6.0405672253411D-01  7.7888698507976D-01
83  8.2000000000000D-01  5.6595978283937D-01  8.3386590003028D-01
84  8.3000000000000D-01  5.2789418292301D-01  8.8858979460205D-01
85  8.4000000000000D-01  4.9012732179961D-01  9.4275966743467D-01
86  8.5000000000000D-01  4.5292413828717D-01  9.9607787020892D-01
87  8.6000000000000D-01  4.1654548346418D-01  1.0482498217498D+00
88  8.7000000000000D-01  3.8124651907476D-01  1.0989857033654D+00
89  8.8000000000000D-01  3.4727515196298D-01  1.1480021251159D+00
90  8.9000000000000D-01  3.1487051440547D-01  1.1950237528766D+00
91  9.0000000000000D-01  2.8426149993404D-01  1.2397848862988D+00
92  9.1000000000000D-01  2.5566536389951D-01  1.2820309780716D+00
93  9.2000000000000D-01  2.2928639762582D-01  1.3215200852524D+00
94  9.3000000000000D-01  2.0531468454230D-01  1.3580242438551D+00
95  9.4000000000000D-01  1.8392494616463D-01  1.3913307583687D+00
96  9.5000000000000D-01  1.6527548522425D-01  1.4212433984125D+00
97  9.6000000000000D-01  1.4950723262572D-01  1.4475834953203D+00
98  9.7000000000000D-01  1.3674290424751D-01  1.4701909320816D+00
99  9.8000000000000D-01  1.2708627288547D-01  1.4889250207500D+00
100  9.9000000000000D-01  1.2062155991234D-01  1.5036652621314D+00
101  1.0000000000000D+00  1.1741295043399D-01  1.5143119833310D+00
102  1.0100000000000D+00  1.1750423492516D-01  1.5207868495139D+00
103  1.0200000000000D+00  1.2091857950648D-01  1.5230332470363D+00
104  1.0300000000000D+00  1.2765842618349D-01  1.5210165359305D+00
105  1.0400000000000D+00  1.3770552351119D-01  1.5147241705688D+00
106  1.0500000000000D+00  1.5102108729504D-01  1.5041656881790D+00
107  1.0600000000000D+00  1.6754609011393D-01  1.4893725656982D+00
108  1.0700000000000D+00  1.8720167754597D-01  1.4703979463606D+00
109  1.0800000000000D+00  2.0988970819765D-01  1.4473162381905D+00
110  1.0900000000000D+00  2.3549341378506D-01  1.4202225874350D+00
111  1.1000000000000D+00  2.6387817474916D-01  1.3892322307425D+00
112  1.1100000000000D+00  2.9489240614325D-01  1.3544797306521D+00
113  1.1200000000000D+00  3.2836854773986D-01  1.3161180997665D+00
114  1.1300000000000D+00  3.6412415168276D-01  1.2743178196244D+00
115  1.1400000000000D+00  4.0196306031824D-01  1.2292657610056D+00
116  1.1500000000000D+00  4.4167666635163D-01  1.1811640129119D+00
117  1.1600000000000D+00  4.8304524678295D-01  1.1302286282020D+00
118  1.1700000000000D+00  5.2583936170822D-01  1.0766882942555D+00
119  1.1800000000000D+00  5.6982130863429D-01  1.0207829375203D+00
120  1.1900000000000D+00  6.1474662260779D-01  9.6276227118251D-01
121  1.2000000000000D+00  6.6036561211397D-01  9.0288429559823D-01
122  1.2100000000000D+00  7.0642492055375D-01  8.4141376132385D-01
123  1.2200000000000D+00  7.5266910295232D-01  7.7862060476540D-01
124  1.2300000000000D+00  7.9884220740775D-01  7.1477836669401D-01
125  1.2400000000000D+00  8.4468935088256D-01  6.5016260382946D-01
126  1.2500000000000D+00  8.8995827895056D-01  5.8504930372532D-01
127  1.2600000000000D+00  9.3440089920737D-01  5.1971331316520D-01
128  1.2700000000000D+00  9.7777477841606D-01  4.5442678999311D-01
129  1.2800000000000D+00  1.0198445935993D+00  3.8945768819162D-01
130  1.2900000000000D+00  1.0603835275689D+00  3.2506828581296D-01
131  1.3000000000000D+00  1.0991746001466D+00  2.6151376470404D-01
132  1.3100000000000D+00  1.1360119263817D+00  1.9904085091990D-01
133  1.3200000000000D+00  1.1707018936848D+00  1.3788652419683D-01
134  1.3300000000000D+00  1.2030642509277D+00  7.8276803824254D-02
135  1.3400000000000D+00  1.2329331022105D+00  2.0425618577818D-02
136  1.3500000000000D+00  1.2601577993980D+00 -3.5466232892561D-02
137  1.3600000000000D+00  1.2846037286489D+00 -8.9212025881415D-02
138  1.3700000000000D+00  1.3061529851331D+00 -1.4063995134163D-01
139  1.3800000000000D+00  1.3247049333514D+00 -1.8959385218793D-01
140  1.3900000000000D+00  1.3401766495688D+00 -2.3593385005306D-01
141  1.4000000000000D+00  1.3525032436704D+00 -2.7953685908799D-01
142  1.4100000000000D+00  1.3616380605271D+00 -3.2029698605199D-01
143  1.4200000000000D+00  1.3675527586573D+00 -3.5812581374024D-01
144  1.4300000000000D+00  1.3702372679328D+00 -3.9295256857587D-01
145  1.4400000000000D+00  1.3696996271933D+00 -4.2472417237625D-01
146  1.4500000000000D+00  1.3659657029341D+00 -4.5340517855106D-01
147  1.4600000000000D+00  1.3590787939130D+00 -4.7897759660743D-01
148  1.4700000000000D+00  1.3490991227441D+00 -5.0144060512205D-01
149  1.4800000000000D+00  1.3361032213347D+00 -5.2081015902495D-01
150  1.4900000000000D+00  1.3201832136242D+00 -5.3711849371318D-01
151  1.5000000000000D+00  1.3014460020139D+00 -5.5041353137501D-01
152  1.5100000000000D+00  1.2800123644119D+00 -5.6075819551180D-01
153  1.5200000000000D+00  1.2560159674920D+00 -5.6822963822551D-01
154  1.5300000000000D+00  1.2296023058278D+00 -5.7291838907466D-01
155  1.5400000000000D+00  1.2009275724587D+00 -5.7492742998679D-01
156  1.5500000000000D+00  1.1701574716643D+00 -5.7437120623685D-01
157  1.5600000000000D+00  1.1374659808036D+00 -5.7137457932099D-01
158  1.5700000000000D+00  1.1030340716271D+00 -5.6607173139191D-01
159  1.5800000000000D+00  1.0670483993783D+00 -5.5860502868840D-01
160  1.5900000000000D+00  1.0296999697326D+00 -5.4912385324168D-01
161  1.6000000000000D+00  9.9118279244194D-01 -5.3778341106243D-01
162  1.6100000000000D+00  9.5169253183104D-01 -5.2474352613079D-01
163  1.6200000000000D+00  9.1142516251322D-01 -5.1016742817146D-01
164  1.6300000000000D+00  8.7057564105223D-01 -4.9422054404101D-01
165  1.6400000000000D+00  8.2933660042985D-01 -4.7706929951830D-01
166  1.6500000000000D+00  7.8789707717553D-01 -4.5887994179957D-01
167  1.6600000000000D+00  7.4644128823854D-01 -4.3981739035850D-01
168  1.6700000000000D+00  7.0514742159759D-01 -4.2004411629363D-01
169  1.6800000000000D+00  6.6418658565375D-01 -3.9971908867468D-01
170  1.6900000000000D+00  6.2372168284426D-01 -3.7899673372693D-01
171  1.7000000000000D+00  5.8390626114319D-01 -3.5802593595761D-01
172  1.7100000000000D+00  5.4488402483783D-01 -3.3694923034470D-01
173  1.7200000000000D+00  5.0678834066739D-01 -3.1590203616796D-01
174  1.7300000000000D+00  4.6974186133596D-01 -2.9501201671634D-01
175  1.7400000000000D+00  4.3385642230148D-01 -2.7439855392291D-01
176  1.7500000000000D+00  3.9923252129777D-01 -2.5417220084893D-01
177  1.7600000000000D+00  3.6595885195949D-01 -2.3443421471225D-01
178  1.7700000000000D+00  3.3411209022555D-01 -2.1527620734439D-01
179  1.7800000000000D+00  3.0375672121762D-01 -1.9677986931656D-01
180  1.7900000000000D+00  2.7494496966885D-01 -1.7901678707674D-01
181  1.8000000000000D+00  2.4771683067762D-01 -1.6204834626626D-01
182  1.8100000000000D+00  2.2210019511074D-01 -1.4592572342899D-01
183  1.8200000000000D+00  1.9811106914525D-01 -1.3068996272901D-01
184  1.8300000000000D+00  1.7575388385413D-01 -1.1637213509103D-01
185  1.8400000000000D+00  1.5502189421509D-01 -1.0299357968961D-01
186  1.8500000000000D+00  1.3589765695909D-01 -9.0566218334056D-02
187  1.8600000000000D+00  1.1835359155829D-01 -7.9092947378722D-02
188  1.8700000000000D+00  1.0235260694629D-01 -6.8568091150718D-02
189  1.8800000000000D+00  8.7848801462422D-02 -5.8977924670338D-02
190  1.8900000000000D+00  7.4788216096093D-02 -5.0301247119645D-02
191  1.9000000000000D+00  6.3109645628851D-02 -4.2510011200378D-02
192  1.9100000000000D+00  5.2745492137261D-02 -3.5569993916735D-02
193  1.9200000000000D+00  4.3622657880292D-02 -2.9441506698718D-02
194  1.9300000000000D+00  3.5663468478368D-02 -2.4080136620641D-02
195  1.9400000000000D+00  2.8786617437133D-02 -1.9437510700449D-02
196  1.9500000000000D+00  2.2908125563307D-02 -1.5462077871024D-02
197  1.9600000000000D+00  1.7942306452142D-02 -1.2099900236830D-02
198  1.9700000000000D+00  1.3802728224958D-02 -9.2954454527165D-03
199  1.9800000000000D+00  1.0403167602205D-02 -6.9923761429862D-03
200  1.9900000000000D+00  7.6585426488408D-03 -5.1343245171598D-03
201  2.0000000000000D+00  5.4858213349927D-03 -3.6656494057519D-03
202  2.0100000000000D+00  3.8048971824391D-03 -2.5321678773992D-03
203  2.0200000000000D+00  2.5394190309167D-03 -1.6818498824583D-03
204  2.0300000000000D+00  1.6175827392108D-03 -1.0654827620142D-03
205  2.0400000000000D+00  9.7288225792870D-04 -6.3730860207222D-04
206  2.0500000000000D+00  5.4469481861381D-04 -3.5549352735827D-04
207  2.0600000000000D+00  2.7894055125820D-04 -1.8268667783424D-04
208  2.0700000000000D+00  1.2872911417571D-04 -8.6572215691712D-05
209  2.0800000000000D+00  5.4716114338493D-05 -4.0362986184976D-05
210  2.0900000000000D+00  2.5652601626819D-05 -2.2987392117056D-05
211  2.1000000000000D+00  1.7940320756946D-05 -1.8438283218750D-05
212  2.1100000000000D+00  1.5595634822403D-05 -1.5909313890487D-05
213  2.1200000000000D+00  9.8993131891748D-06 -9.7623871259925D-06
214  2.1300000000000D+00  2.5497200158505D-06 -2.4331103685150D-06
215  2.1400000000000D+00 -1.5333525803449D-06  1.5342295242728D-06
216  2.1500000000000D+00 -1.5653753129021D-06  1.5493394803209D-06
217  2.1600000000000D+00  2.8331700201760D-08 -3.1284378086220D-08
218  2.1700000000000D+00  3.1456309030197D-07 -3.4927904218262D-07
219  2.1800000000000D+00  1.7358431055228D-07 -1.9361632426922D-07
220  2.1900000000000D+00 -2.7076312332906D-08  2.7718969847658D-08
221  2.2000000000000D+00 -4.4324649975504D-08  4.5376697575091D-08
222  2.2100000000000D+00 -8.1051237896766D-09  8.2974992744689D-09
223  2.2200000000000D+00  0.0000000000000D+00  0.0000000000000D+00
224  2.2300000000000D+00  0.0000000000000D+00  0.0000000000000D+00
225  2.2400000000000D+00  0.0000000000000D+00  0.0000000000000D+00
226  2.2500000000000D+00  0.0000000000000D+00  0.0000000000000D+00
227  2.2600000000000D+00  0.0000000000000D+00  0.0000000000000D+00
228  2.2700000000000D+00  0.0000000000000D+00  0.0000000000000D+00
229  2.2800000000000D+00  0.0000000000000D+00  0.0000000000000D+00
230  2.2900000000000D+00  0.0000000000000D+00  0.0000000000000D+00
231  2.3000000000000D+00  0.0000000000000D+00  0.0000000000000D+00
232  2.3100000000000D+00  0.0000000000000D+00  0.0000000000000D+00
233  2.3200000000000D+00  0.0000000000000D+00  0.0000000000000D+00
234  2.3300000000000D+00  0.0000000000000D+00  0.0000000000000D+00
235  2.3400000000000D+00  0.0000000000000D+00  0.0000000000000D+00
236  2.3500000000000D+00  0.0000000000000D+00  0.0000000000000D+00
237  2.3600000000000D+00  0.0000000000000D+00  0.0000000000000D+00
238  2.3700000000000D+00  0.0000000000000D+00  0.0000000000000D+00
239  2.3800000000000D+00  0.0000000000000D+00  0.0000000000000D+00
240  2.3900000000000D+00  0.0000000000000D+00  0.0000000000000D+00
241  2.4000000000000D+00  0.0000000000000D+00  0.0000000000000D+00
242  2.4100000000000D+00  0.0000000000000D+00  0.0000000000000D+00
243  2.4200000000000D+00  0.0000000000000D+00  0.0000000000000D+00
244  2.4300000000000D+00  0.0000000000000D+00  0.0000000000000D+00
245  2.4400000000000D+00  0.0000000000000D+00  0.0000000000000D+00
246  2.4500000000000D+00  0.0000000000000D+00  0.0000000000000D+00
247  2.4600000000000D+00  0.0000000000000D+00  0.0000000000000D+00
248  2.4700000000000D+00  0.0000000000000D+00  0.0000000000000D+00
249  2.4800000000000D+00  0.0000000000000D+00  0.0000000000000D+00
250  2.4900000000000D+00  0.0000000000000D+00  0.0000000000000D+00
251  2.5000000000000D+00  0.0000000000000D+00  0.0000000000000D+00
252  2.5100000000000D+00  0.0000000000000D+00  0.0000000000000D+00
253  2.5200000000000D+00  0.0000000000000D+00  0.0000000000000D+00
254  2.5300000000000D+00  0.0000000000000D+00  0.0000000000000D+00
255  2.5400000000000D+00  0.0000000000000D+00  0.0000000000000D+00
256  2.5500000000000D+00  0.0000000000000D+00  0.0000000000000D+00
257  2.5600000000000D+00  0.0000000000000D+00  0.0000000000000D+00
258  2.5700000000000D+00  0.0000000000000D+00  0.0000000000000D+00
259  2.5800000000000D+00  0.0000000000000D+00  0.0000000000000D+00
260  2.5900000000000D+00  0.0000000000000D+00  0.0000000000000D+00
261  2.6000000000000D+00  0.0000000000000D+00  0.0000000000000D+00
262  2.6100000000000D+00  0.0000000000000D+00  0.0000000000000D+00
263  2.6200000000000D+00  0.0000000000000D+00  0.0000000000000D+00
264  2.6300000000000D+00  0.0000000000000D+00  0.0000000000000D+00
265  2.6400000000000D+00  0.0000000000000D+00  0.0000000000000D+00
266  2.6500000000000D+00  0.0000000000000D+00  0.0000000000000D+00
267  2.6600000000000D+00  0.0000000000000D+00  0.0000000000000D+00
268  2.6700000000000D+00  0.0000000000000D+00  0.0000000000000D+00
269  2.6800000000000D+00  0.0000000000000D+00  0.0000000000000D+00
270  2.6900000000000D+00  0.0000000000000D+00  0.0000000000000D+00
271  2.7000000000000D+00  0.0000000000000D+00  0.0000000000000D+00
272  2.7100000000000D+00  0.0000000000000D+00  0.0000000000000D+00
273  2.7200000000000D+00  0.0000000000000D+00  0.0000000000000D+00
274  2.7300000000000D+00  0.0000000000000D+00  0.0000000000000D+00
275  2.7400000000000D+00  0.0000000000000D+00  0.0000000000000D+00
276  2.7500000000000D+00  0.0000000000000D+00  0.0000000000000D+00
277  2.7600000000000D+00  0.0000000000000D+00  0.0000000000000D+00
278  2.7700000000000D+00  0.0000000000000D+00  0.0000000000000D+00
279  2.7800000000000D+00  0.0000000000000D+00  0.0000000000000D+00
280  2.7900000000000D+00  0.0000000000000D+00  0.0000000000000D+00
281  2.8000000000000D+00  0.0000000000000D+00  0.0000000000000D+00
282  2.8100000000000D+00  0.0000000000000D+00  0.0000000000000D+00
283  2.8200000000000D+00  0.0000000000000D+00  0.0000000000000D+00
284  2.8300000000000D+00  0.0000000000000D+00  0.0000000000000D+00
285  2.8400000000000D+00  0.0000000000000D+00  0.0000000000000D+00
286  2.8500000000000D+00  0.0000000000000D+00  0.0000000000000D+00
287  2.8600000000000D+00  0.0000000000000D+00  0.0000000000000D+00
288  2.8700000000000D+00  0.0000000000000D+00  0.0000000000000D+00
289  2.8800000000000D+00  0.0000000000000D+00  0.0000000000000D+00
290  2.8900000000000D+00  0.0000000000000D+00  0.0000000000000D+00
291  2.9000000000000D+00  0.0000000000000D+00  0.0000000000000D+00
292  2.9100000000000D+00  0.0000000000000D+00  0.0000000000000D+00
293  2.9200000000000D+00  0.0000000000000D+00  0.0000000000000D+00
294  2.9300000000000D+00  0.0000000000000D+00  0.0000000000000D+00
295  2.9400000000000D+00  0.0000000000000D+00  0.0000000000000D+00
296  2.9500000000000D+00  0.0000000000000D+00  0.0000000000000D+00
297  2.9600000000000D+00  0.0000000000000D+00  0.0000000000000D+00
298  2.9700000000000D+00  0.0000000000000D+00  0.0000000000000D+00
299  2.9800000000000D+00  0.0000000000000D+00  0.0000000000000D+00
300  2.9900000000000D+00  0.0000000000000D+00  0.0000000000000D+00
301  3.0000000000000D+00  0.0000000000000D+00  0.0000000000000D+00
302  3.0100000000000D+00  0.0000000000000D+00  0.0000000000000D+00
303  3.0200000000000D+00  0.0000000000000D+00  0.0000000000000D+00
304  3.0300000000000D+00  0.0000000000000D+00  0.0000000000000D+00
305  3.0400000000000D+00  0.0000000000000D+00  0.0000000000000D+00
306  3.0500000000000D+00  0.0000000000000D+00  0.0000000000000D+00
307  3.0600000000000D+00  0.0000000000000D+00  0.0000000000000D+00
308  3.0700000000000D+00  0.0000000000000D+00  0.0000000000000D+00
309  3.0800000000000D+00  0.0000000000000D+00  0.0000000000000D+00
310  3.0900000000000D+00  0.0000000000000D+00  0.0000000000000D+00
311  3.1000000000000D+00  0.0000000000000D+00  0.0000000000000D+00
312  3.1100000000000D+00  0.0000000000000D+00  0.0000000000000D+00
313  3.1200000000000D+00  0.0000000000000D+00  0.0000000000000D+00
314  3.1300000000000D+00  0.0000000000000D+00  0.0000000000000D+00
315  3.1400000000000D+00  0.0000000000000D+00  0.0000000000000D+00
316  3.1500000000000D+00  0.0000000000000D+00  0.0000000000000D+00
317  3.1600000000000D+00  0.0000000000000D+00  0.0000000000000D+00
318  3.1700000000000D+00  0.0000000000000D+00  0.0000000000000D+00
319  3.1800000000000D+00  0.0000000000000D+00  0.0000000000000D+00
320  3.1900000000000D+00  0.0000000000000D+00  0.0000000000000D+00
321  3.2000000000000D+00  0.0000000000000D+00  0.0000000000000D+00
322  3.2100000000000D+00  0.0000000000000D+00  0.0000000000000D+00
323  3.2200000000000D+00  0.0000000000000D+00  0.0000000000000D+00
324  3.2300000000000D+00  0.0000000000000D+00  0.0000000000000D+00
325  3.2400000000000D+00  0.0000000000000D+00  0.0000000000000D+00
326  3.2500000000000D+00  0.0000000000000D+00  0.0000000000000D+00
327  3.2600000000000D+00  0.0000000000000D+00  0.0000000000000D+00
328  3.2700000000000D+00  0.0000000000000D+00  0.0000000000000D+00
329  3.2800000000000D+00  0.0000000000000D+00  0.0000000000000D+00
330  3.2900000000000D+00  0.0000000000000D+00  0.0000000000000D+00
331  3.3000000000000D+00  0.0000000000000D+00  0.0000000000000D+00
332  3.3100000000000D+00  0.0000000000000D+00  0.0000000000000D+00
333  3.3200000000000D+00  0.0000000000000D+00  0.0000000000000D+00
334  3.3300000000000D+00  0.0000000000000D+00  0.0000000000000D+00
335  3.3400000000000D+00  0.0000000000000D+00  0.0000000000000D+00
336  3.3500000000000D+00  0.0000000000000D+00  0.0000000000000D+00
337  3.3600000000000D+00  0.0000000000000D+00  0.0000000000000D+00
338  3.3700000000000D+00  0.0000000000000D+00  0.0000000000000D+00
339  3.3800000000000D+00  0.0000000000000D+00  0.0000000000000D+00
340  3.3900000000000D+00  0.0000000000000D+00  0.0000000000000D+00
341  3.4000000000000D+00  0.0000000000000D+00  0.0000000000000D+00
342  3.4100000000000D+00  0.0000000000000D+00  0.0000000000000D+00
343  3.4200000000000D+00  0.0000000000000D+00  0.0000000000000D+00
344  3.4300000000000D+00  0.0000000000000D+00  0.0000000000000D+00
345  3.4400000000000D+00  0.0000000000000D+00  0.0000000000000D+00
346  3.4500000000000D+00  0.0000000000000D+00  0.0000000000000D+00
347  3.4600000000000D+00  0.0000000000000D+00  0.0000000000000D+00
348  3.4700000000000D+00  0.0000000000000D+00  0.0000000000000D+00
349  3.4800000000000D+00  0.0000000000000D+00  0.0000000000000D+00
350  3.4900000000000D+00  0.0000000000000D+00  0.0000000000000D+00
351  3.5000000000000D+00  0.0000000000000D+00  0.0000000000000D+00
352  3.5100000000000D+00  0.0000000000000D+00  0.0000000000000D+00
353  3.5200000000000D+00  0.0000000000000D+00  0.0000000000000D+00
354  3.5300000000000D+00  0.0000000000000D+00  0.0000000000000D+00
355  3.5400000000000D+00  0.0000000000000D+00  0.0000000000000D+00
356  3.5500000000000D+00  0.0000000000000D+00  0.0000000000000D+00
357  3.5600000000000D+00  0.0000000000000D+00  0.0000000000000D+00
358  3.5700000000000D+00  0.0000000000000D+00  0.0000000000000D+00
359  3.5800000000000D+00  0.0000000000000D+00  0.0000000000000D+00
360  3.5900000000000D+00  0.0000000000000D+00  0.0000000000000D+00
361  3.6000000000000D+00  0.0000000000000D+00  0.0000000000000D+00
362  3.6100000000000D+00  0.0000000000000D+00  0.0000000000000D+00
363  3.6200000000000D+00  0.0000000000000D+00  0.0000000000000D+00
364  3.6300000000000D+00  0.0000000000000D+00  0.0000000000000D+00
365  3.6400000000000D+00  0.0000000000000D+00  0.0000000000000D+00
366  3.6500000000000D+00  0.0000000000000D+00  0.0000000000000D+00
367  3.6600000000000D+00  0.0000000000000D+00  0.0000000000000D+00
368  3.6700000000000D+00  0.0000000000000D+00  0.0000000000000D+00
369  3.6800000000000D+00  0.0000000000000D+00  0.0000000000000D+00
370  3.6900000000000D+00  0.0000000000000D+00  0.0000000000000D+00
371  3.7000000000000D+00  0.0000000000000D+00  0.0000000000000D+00
372  3.7100000000000D+00  0.0000000000000D+00  0.0000000000000D+00
373  3.7200000000000D+00  0.0000000000000D+00  0.0000000000000D+00
374  3.7300000000000D+00  0.0000000000000D+00  0.0000000000000D+00
375  3.7400000000000D+00  0.0000000000000D+00  0.0000000000000D+00
376  3.7500000000000D+00  0.0000000000000D+00  0.0000000000000D+00
377  3.7600000000000D+00  0.0000000000000D+00  0.0000000000000D+00
378  3.7700000000000D+00  0.0000000000000D+00  0.0000000000000D+00
379  3.7800000000000D+00  0.0000000000000D+00  0.0000000000000D+00
380  3.7900000000000D+00  0.0000000000000D+00  0.0000000000000D+00
381  3.8000000000000D+00  0.0000000000000D+00  0.0000000000000D+00
382  3.8100000000000D+00  0.0000000000000D+00  0.0000000000000D+00
383  3.8200000000000D+00  0.0000000000000D+00  0.0000000000000D+00
384  3.8300000000000D+00  0.0000000000000D+00  0.0000000000000D+00
385  3.8400000000000D+00  0.0000000000000D+00  0.0000000000000D+00
386  3.8500000000000D+00  0.0000000000000D+00  0.0000000000000D+00
387  3.8600000000000D+00  0.0000000000000D+00  0.0000000000000D+00
388  3.8700000000000D+00  0.0000000000000D+00  0.0000000000000D+00
389  3.8800000000000D+00  0.0000000000000D+00  0.0000000000000D+00
390  3.8900000000000D+00  0.0000000000000D+00  0.0000000000000D+00
391  3.9000000000000D+00  0.0000000000000D+00  0.0000000000000D+00
392  3.9100000000000D+00  0.0000000000000D+00  0.0000000000000D+00
393  3.9200000000000D+00  0.0000000000000D+00  0.0000000000000D+00
394  3.9300000000000D+00  0.0000000000000D+00  0.0000000000000D+00
395  3.9400000000000D+00  0.0000000000000D+00  0.0000000000000D+00
396  3.9500000000000D+00  0.0000000000000D+00  0.0000000000000D+00
397  3.9600000000000D+00  0.0000000000000D+00  0.0000000000000D+00
398  3.9700000000000D+00  0.0000000000000D+00  0.0000000000000D+00
399  3.9800000000000D+00  0.0000000000000D+00  0.0000000000000D+00
400  3.9900000000000D+00  0.0000000000000D+00  0.0000000000000D+00
401  4.0000000000000D+00  0.0000000000000D+00  0.0000000000000D+00
402  4.0100000000000D+00  0.0000000000000D+00  0.0000000000000D+00
403  4.0200000000000D+00  0.0000000000000D+00  0.0000000000000D+00
404  4.0300000000000D+00  0.0000000000000D+00  0.0000000000000D+00
405  4.0400000000000D+00  0.0000000000000D+00  0.0000000000000D+00
406  4.0500000000000D+00  0.0000000000000D+00  0.0000000000000D+00
407  4.0600000000000D+00  0.0000000000000D+00  0.0000000000000D+00
408  4.0700000000000D+00  0.0000000000000D+00  0.0000000000000D+00
409  4.0800000000000D+00  0.0000000000000D+00  0.0000000000000D+00
410  4.0900000000000D+00  0.0000000000000D+00  0.0000000000000D+00
411  4.1000000000000D+00  0.0000000000000D+00  0.0000000000000D+00
412  4.1100000000000D+00  0.0000000000000D+00  0.0000000000000D+00
413  4.1200000000000D+00  0.0000000000000D+00  0.0000000000000D+00
414  4.1300000000000D+00  0.0000000000000D+00  0.0000000000000D+00
415  4.1400000000000D+00  0.0000000000000D+00  0.0000000000000D+00
416  4.1500000000000D+00  0.0000000000000D+00  0.0000000000000D+00
417  4.1600000000000D+00  0.0000000000000D+00  0.0000000000000D+00
418  4.1700000000000D+00  0.0000000000000D+00  0.0000000000000D+00
419  4.1800000000000D+00  0.0000000000000D+00  0.0000000000000D+00
420  4.1900000000000D+00  0.0000000000000D+00  0.0000000000000D+00
421  4.2000000000000D+00  0.0000000000000D+00  0.0000000000000D+00
422  4.2100000000000D+00  0.0000000000000D+00  0.0000000000000D+00
423  4.2200000000000D+00  0.0000000000000D+00  0.0000000000000D+00
424  4.2300000000000D+00  0.0000000000000D+00  0.0000000000000D+00
425  4.2400000000000D+00  0.0000000000000D+00  0.0000000000000D+00
426  4.2500000000000D+00  0.0000000000000D+00  0.0000000000000D+00
427  4.2600000000000D+00  0.0000000000000D+00  0.0000000000000D+00
428  4.2700000000000D+00  0.0000000000000D+00  0.0000000000000D+00
429  4.2800000000000D+00  0.0000000000000D+00  0.0000000000000D+00
430  4.2900000000000D+00  0.0000000000000D+00  0.0000000000000D+00
431  4.3000000000000D+00  0.0000000000000D+00  0.0000000000000D+00
432  4.3100000000000D+00  0.0000000000000D+00  0.0000000000000D+00
433  4.3200000000000D+00  0.0000000000000D+00  0.0000000000000D+00
434  4.3300000000000D+00  0.0000000000000D+00  0.0000000000000D+00
435  4.3400000000000D+00  0.0000000000000D+00  0.0000000000000D+00
436  4.3500000000000D+00  0.0000000000000D+00  0.0000000000000D+00
437  4.3600000000000D+00  0.0000000000000D+00  0.0000000000000D+00
438  4.3700000000000D+00  0.0000000000000D+00  0.0000000000000D+00
439  4.3800000000000D+00  0.0000000000000D+00  0.0000000000000D+00
440  4.3900000000000D+00  0.0000000000000D+00  0.0000000000000D+00
441  4.4000000000000D+00  0.0000000000000D+00  0.0000000000000D+00
442  4.4100000000000D+00  0.0000000000000D+00  0.0000000000000D+00
443  4.4200000000000D+00  0.0000000000000D+00  0.0000000000000D+00