<?xml version="1.0" encoding="UTF-8" ?>
<psml version="1.1" energy_unit="hartree" length_unit="bohr"
 uuid="4f6896c0-539f-11e8-4afa-71da1ecf2500"
 xmlns="http://esl.cecam.org/PSML/ns/1.1">
<provenance creator="ONCVPSP-3.3.0+psml-3.3.0-73 (fully-relativistic)"
 date="2018-05-09">
<annotation action="semilocal-pseudopotential-generation"
 action-cont="projectors-generation" />
<input-file name="oncvpsp-input">
<![CDATA[# atsym z nc nv iexc psfile
In 49 8 3 -116133 upf
# n l f
1 0 2.0
2 0 2.0
2 1 6.0
3 0 2.0
3 1 6.0
3 2 10.0
4 0 2.0
4 1 6.0
4 2 10.0
5 0 2.0
5 1 1.0
# lmax
2
# l rc ep ncon nbas qcut
0 2.1 0.0 5 8 2.8
1 2.35 0.0 5 8 2.8
2 1.85 0.0 4 7 8.2
# lloc lpopt rc5 dvloc0
4 5 1.7 0.0
# l nproj debl
0 2 1.1
1 2 3.0
2 2 1.5
# icmod fcfact
3 5 1.44
# epsh1 epsh2 depsh
-12.0 12.0 0.02
# rlmax drl
6.0 0.01
 0
]]>
</input-file>
</provenance>
<pseudo-atom-spec atomic-label="In" atomic-number="49" z-pseudo="13"
 flavor="Hamann&apos;s oncvpsp" relativity="dirac" spin-dft="no"
 core-corrections="yes">
<annotation pseudo-energy="-56.5275360722" />
<exchange-correlation>
<annotation oncvpsp-xc-code="-116133" oncvpsp-xc-type="libxc-interface" />
<libxc-info number-of-functionals="2">
<functional name="Perdew, Burke &amp; Ernzerhof SOL (GGA)" type="exchange"
 id="116" />
<functional name="Perdew, Burke &amp; Ernzerhof SOL (GGA)" type="correlation"
 id="133" />
</libxc-info>
</exchange-correlation>
<valence-configuration total-valence-charge="13">
<shell n="4" l="d" occupation="10" />
<shell n="5" l="s" occupation="2" />
<shell n="5" l="p" occupation="1" />
</valence-configuration>
</pseudo-atom-spec>
<grid npts="457">
<annotation type="sampled from oncvpsp log grid"
 recipe="r(i:1..N) = r1*exp(a*(i-1)) + r=0; resampled"
 recipe-cont="r1: scale; a: step" scale="0.102040816327E-04"
 step="0.119285708653E-01" delta="0.500000000000E-02" rmax="44.1581064066" />
<grid-data>
  0.000000000000E+00  5.042436366198E-03  1.007187092528E-02  1.510941245291E-02
  2.011777176121E-02  2.523536637175E-02  3.054202401815E-02  3.566518465412E-02
  4.066587435065E-02  4.581790627188E-02  5.101053189425E-02  5.611822836574E-02
  6.173735967777E-02  6.711377067229E-02  7.295838755272E-02  7.837152581763E-02
  8.418629118611E-02  8.936016040508E-02  9.485200209104E-02  1.006813580000E-01
  1.068689708730E-01  1.120917571602E-01  1.175697858846E-01  1.233155309823E-01
  1.293420760023E-01  1.356631438985E-01  1.422931282787E-01  1.474773974107E-01
  1.528505487941E-01  1.584194641135E-01  1.641912757790E-01  1.701733760607E-01
  1.763734265569E-01  1.827993680065E-01  1.894594304590E-01  1.963621438154E-01
  2.035163487527E-01  2.109312080467E-01  2.160239311338E-01  2.212396129270E-01
  2.265812221416E-01  2.320517991689E-01  2.376544578081E-01  2.433923870374E-01
  2.492688528300E-01  2.552872000128E-01  2.614508541699E-01  2.677633235929E-01
  2.742282012778E-01  2.808491669694E-01  2.876299892567E-01  2.945745277173E-01
  3.016867351146E-01  3.089706596472E-01  3.164304472537E-01  3.240703439722E-01
  3.318946983570E-01  3.399079639542E-01  3.481147018359E-01  3.565195831970E-01
  3.651273920137E-01  3.739430277665E-01  3.829715082289E-01  3.922179723236E-01
  4.016876830473E-01  4.113860304668E-01  4.213185347864E-01  4.263743572039E-01
  4.314908494903E-01  4.366687396842E-01  4.419087645604E-01  4.472116697351E-01
  4.525782097720E-01  4.580091482892E-01  4.635052580687E-01  4.690673211655E-01
  4.746961290195E-01  4.803924825677E-01  4.861571923585E-01  4.919910786669E-01
  4.978949716109E-01  5.038697112702E-01  5.099161478054E-01  5.160351415791E-01
  5.222275632780E-01  5.284942940374E-01  5.348362255658E-01  5.412542602726E-01
  5.477493113959E-01  5.543223031326E-01  5.609741707702E-01  5.677058608195E-01
  5.745183311493E-01  5.814125511231E-01  5.883895017366E-01  5.954501757574E-01
  6.025955778665E-01  6.098267248009E-01  6.171446454985E-01  6.245503812445E-01
  6.320449858194E-01  6.396295256493E-01  6.473050799571E-01  6.550727409165E-01
  6.629336138075E-01  6.708888171732E-01  6.789394829793E-01  6.870867567751E-01
  6.953317978564E-01  7.036757794306E-01  7.121198887838E-01  7.206653274492E-01
  7.293133113786E-01  7.380650711151E-01  7.469218519685E-01  7.558849141921E-01
  7.649555331624E-01  7.741349995604E-01  7.834246195551E-01  7.928257149898E-01
  8.023396235697E-01  8.119676990525E-01  8.217113114411E-01  8.315718471784E-01
  8.415507093446E-01  8.516493178567E-01  8.618691096710E-01  8.722115389870E-01
  8.826780774549E-01  8.932702143843E-01  9.039894569569E-01  9.148373304404E-01
  9.258153784057E-01  9.369251629466E-01  9.481682649019E-01  9.595462840808E-01
  9.710608394897E-01  9.827135695636E-01  9.945061323984E-01  1.006440205987E+00
  1.018517488459E+00  1.030739698321E+00  1.043108574700E+00  1.055625877597E+00
  1.068293388128E+00  1.081112908785E+00  1.094086263691E+00  1.107215298855E+00
  1.120501882441E+00  1.133947905031E+00  1.147555279891E+00  1.161325943250E+00
  1.175261854569E+00  1.189364996824E+00  1.203637376785E+00  1.218081025307E+00
  1.232697997611E+00  1.247490373582E+00  1.262460258065E+00  1.277609781162E+00
  1.292941098536E+00  1.308456391718E+00  1.324157868419E+00  1.340047762840E+00
  1.356128335994E+00  1.372401876026E+00  1.388870698538E+00  1.405537146920E+00
  1.422403592684E+00  1.439472435796E+00  1.456746105025E+00  1.474227058286E+00
  1.491917782985E+00  1.509820796381E+00  1.527938645937E+00  1.546273909689E+00
  1.564829196605E+00  1.583607146964E+00  1.602610432728E+00  1.621841757920E+00
  1.641303859016E+00  1.660999505324E+00  1.680931499388E+00  1.701102677380E+00
  1.721515909509E+00  1.742174100423E+00  1.763080189628E+00  1.784237151904E+00
  1.805647997726E+00  1.827315773699E+00  1.849243562983E+00  1.871434485739E+00
  1.893891699568E+00  1.916618399963E+00  1.939617820762E+00  1.962893234612E+00
  1.986447953427E+00  2.010285328868E+00  2.034408752815E+00  2.058821657848E+00
  2.083527517742E+00  2.108529847955E+00  2.133832206131E+00  2.159438192604E+00
  2.185351450916E+00  2.211575668327E+00  2.238114576347E+00  2.264971951263E+00
  2.292151614678E+00  2.319657434054E+00  2.347493323263E+00  2.375663243142E+00
  2.404171202060E+00  2.433021256484E+00  2.462217511562E+00  2.491764121701E+00
  2.521665291161E+00  2.551925274655E+00  2.582548377951E+00  2.613538958486E+00
  2.644901425988E+00  2.676640243100E+00  2.708759926017E+00  2.741265045130E+00
  2.774160225671E+00  2.807450148379E+00  2.841139550160E+00  2.875233224762E+00
  2.909736023459E+00  2.944652855740E+00  2.979988690009E+00  3.015748554289E+00
  3.051937536941E+00  3.088560787384E+00  3.125623516833E+00  3.163130999035E+00
  3.201088571023E+00  3.239501633875E+00  3.278375653482E+00  3.317716161324E+00
  3.357528755259E+00  3.397819100323E+00  3.438592929526E+00  3.479856044681E+00
  3.521614317217E+00  3.563873689024E+00  3.606640173292E+00  3.649919855371E+00
  3.693718893636E+00  3.738043520359E+00  3.782900042604E+00  3.828294843115E+00
  3.874234381232E+00  3.920725193807E+00  3.967773896133E+00  4.015387182886E+00
  4.063571829081E+00  4.112334691030E+00  4.161682707322E+00  4.211622899810E+00
  4.262162374608E+00  4.313308323103E+00  4.365068022981E+00  4.417448839256E+00
  4.470458225327E+00  4.524103724031E+00  4.578392968720E+00  4.633333684344E+00
  4.688933688556E+00  4.745200892819E+00  4.802143303533E+00  4.859769023175E+00
  4.918086251453E+00  4.977103286471E+00  5.036828525909E+00  5.097270468219E+00
  5.158437713838E+00  5.220338966404E+00  5.282983034001E+00  5.346378830409E+00
  5.410535376374E+00  5.475461800890E+00  5.541167342501E+00  5.607661350611E+00
  5.674953286818E+00  5.743052726260E+00  5.811969358975E+00  5.881712991283E+00
  5.952293547178E+00  6.023721069745E+00  6.096005722582E+00  6.169157791252E+00
  6.243187684748E+00  6.318105936964E+00  6.393923208208E+00  6.470650286707E+00
  6.548298090147E+00  6.626877667229E+00  6.706400199236E+00  6.786877001626E+00
  6.868319525646E+00  6.950739359954E+00  7.034148232273E+00  7.118558011060E+00
  7.203980707193E+00  7.290428475679E+00  7.377913617388E+00  7.466448580796E+00
  7.556045963766E+00  7.646718515331E+00  7.738479137515E+00  7.831340887165E+00
  7.925316977811E+00  8.020420781545E+00  8.116665830923E+00  8.214065820894E+00
  8.312634610745E+00  8.412386226074E+00  8.513334860787E+00  8.615494879116E+00
  8.718880817666E+00  8.823507387478E+00  8.929389476128E+00  9.036542149841E+00
  9.144980655639E+00  9.254720423507E+00  9.365777068589E+00  9.478166393412E+00
  9.591904390133E+00  9.707007242815E+00  9.823491329728E+00  9.941373225685E+00
  1.006066970439E+01  1.018139774085E+01  1.030357451374E+01  1.042721740790E+01
  1.055234401680E+01  1.067897214500E+01  1.080711981074E+01  1.093680524847E+01
  1.106804691145E+01  1.120086347439E+01  1.133527383608E+01  1.147129712211E+01
  1.160895268758E+01  1.174826011983E+01  1.188923924126E+01  1.203191011216E+01
  1.217629303351E+01  1.232240854991E+01  1.247027745251E+01  1.261992078194E+01
  1.277135983132E+01  1.292461614930E+01  1.307971154309E+01  1.323666808160E+01
  1.339550809858E+01  1.355625419577E+01  1.371892924612E+01  1.388355639707E+01
  1.405015907383E+01  1.421876098272E+01  1.438938611451E+01  1.456205874789E+01
  1.473680345286E+01  1.491364509430E+01  1.509260883543E+01  1.527372014145E+01
  1.545700478315E+01  1.564248884055E+01  1.583019870663E+01  1.602016109111E+01
  1.621240302421E+01  1.640695186050E+01  1.660383528282E+01  1.680308130622E+01
  1.700471828189E+01  1.720877490128E+01  1.741528020009E+01  1.762426356249E+01
  1.783575472524E+01  1.804978378194E+01  1.826638118733E+01  1.848557776158E+01
  1.870740469471E+01  1.893189355105E+01  1.915907627366E+01  1.938898518895E+01
  1.962165301122E+01  1.985711284735E+01  2.009539820152E+01  2.033654297994E+01
  2.058058149570E+01  2.082754847364E+01  2.107747905533E+01  2.133040880399E+01
  2.158637370964E+01  2.184541019416E+01  2.210755511649E+01  2.237284577788E+01
  2.264131992722E+01  2.291301576634E+01  2.318797195554E+01  2.346622761901E+01
  2.374782235043E+01  2.403279621864E+01  2.432118977326E+01  2.461304405054E+01
  2.490840057915E+01  2.520730138610E+01  2.550978900273E+01  2.581590647077E+01
  2.612569734841E+01  2.643920571660E+01  2.675647618519E+01  2.707755389942E+01
  2.740248454621E+01  2.773131436076E+01  2.806409013309E+01  2.840085921469E+01
  2.874166952527E+01  2.908656955957E+01  2.943560839428E+01  2.978883569502E+01
  3.014630172336E+01  3.050805734404E+01  3.087415403217E+01  3.124464388055E+01
  3.161957960712E+01  3.199901456240E+01  3.238300273715E+01  3.277159877000E+01
  3.316485795524E+01  3.356283625070E+01  3.396559028571E+01  3.437317736914E+01
  3.478565549757E+01  3.520308336354E+01  3.562552036390E+01  3.605302660827E+01
  3.648566292757E+01  3.692349088270E+01  3.736657277329E+01  3.781497164657E+01
  3.826875130633E+01  3.872797632200E+01  3.919271203787E+01  3.966302458232E+01
  4.013898087731E+01  4.062064864784E+01  4.110809643161E+01  4.160139358879E+01
  4.210061031186E+01  4.260581763560E+01  4.311708744723E+01  4.363449249659E+01
  4.415810640655E+01
</grid-data>
</grid>
<valence-charge total-charge="13" is-unscreening-charge="yes"
 rescaled-to-z-pseudo="no">
<radfunc>
<data npts="457">
  7.607230236709E-03  7.609677010164E-03  7.619043401339E-03  7.641514218283E-03
  7.686973308000E-03  7.771904638626E-03  7.921543879611E-03  8.149821669777E-03
  8.479013925920E-03  8.959752402741E-03  9.626478918627E-03  1.050101821984E-02
  1.176592664077E-02  1.332954462436E-02  1.549198047563E-02  1.799421634216E-02
  2.129861763346E-02  2.484772270256E-02  2.932061654770E-02  3.495584922982E-02
  4.205231416679E-02  4.902987994833E-02  5.741349171587E-02  6.748150326251E-02
  7.956549368840E-02  9.405980400749E-02  1.114325678654E-01  1.266811106537E-01
  1.441292002606E-01  1.640830890618E-01  1.868889613200E-01  2.129374896270E-01
  2.426687523566E-01  2.765774985684E-01  3.152187319015E-01  3.592135658433E-01
  4.092552785262E-01  4.661154650008E-01  5.082293696811E-01  5.540280072726E-01
  6.038056614528E-01  6.578758685286E-01  7.165720148427E-01  7.802478348671E-01
  8.492777839211E-01  9.240572558239E-01  1.005002611884E+00  1.092550983452E+00
  1.187159805852E+00  1.289306036912E+00  1.399485008562E+00  1.518208855229E+00
  1.646004457995E+00  1.783410839023E+00  1.930975936585E+00  2.089252687491E+00
  2.258794340999E+00  2.440148926727E+00  2.633852798989E+00  2.840423181801E+00
  3.060349642979E+00  3.294084432768E+00  3.542031632930E+00  3.804535076732E+00
  4.081865019435E+00  4.374203563470E+00  4.681628872970E+00  4.840990927102E+00
  5.004098249465E+00  5.170923672978E+00  5.341430184818E+00  5.515570322030E+00
  5.693285559289E+00  5.874505691243E+00  6.059148212160E+00  6.247117695918E+00
  6.438305179662E+00  6.632587554830E+00  6.829826969543E+00  7.029870246735E+00
  7.232548322722E+00  7.437675711291E+00  7.645049998721E+00  7.854451375508E+00
  8.065642210914E+00  8.278366676779E+00  8.492350427345E+00  8.707300342154E+00
  8.922904339311E+00  9.138831266655E+00  9.354730878556E+00  9.570233906191E+00
  9.784952229239E+00  9.998479156937E+00  1.021038982640E+01  1.042024172594E+01
  1.062757535093E+01  1.083191499944E+01  1.103276971422E+01  1.122963437758E+01
  1.142199096432E+01  1.160930995774E+01  1.179105193229E+01  1.196666930567E+01
  1.213560826186E+01  1.229731084502E+01  1.245121722296E+01  1.259676811683E+01
  1.273340739232E+01  1.286058480507E+01  1.297775889159E+01  1.308439999411E+01
  1.317999340598E+01  1.326404262140E+01  1.333607267129E+01  1.339563352404E+01
  1.344230352791E+01  1.347569286899E+01  1.349544701660E+01  1.350125012543E+01
  1.349282836182E+01  1.346995311970E+01  1.343244408996E+01  1.338017214592E+01
  1.331306200651E+01  1.323109463843E+01  1.313430935838E+01  1.302280559726E+01
  1.289674428919E+01  1.275634884990E+01  1.260190571170E+01  1.243376438511E+01
  1.225233702101E+01  1.205809745189E+01  1.185157969561E+01  1.163337591119E+01
  1.140413380227E+01  1.116455347118E+01  1.091538373359E+01  1.065741791183E+01
  1.039148913276E+01  1.011846516427E+01  9.839242832575E+00  9.554742070256E+00
  9.265899652614E+00  8.973662686674E+00  8.678981923463E+00  8.382804969343E+00
  8.086069476422E+00  7.789696394888E+00  7.494583371656E+00  7.201598379744E+00
  6.911573661173E+00  6.625300063029E+00  6.343521841492E+00  6.066932002214E+00
  5.796168237556E+00  5.531809511899E+00  5.274373335834E+00  5.024313758629E+00
  4.782020096287E+00  4.547816400028E+00  4.321961657457E+00  4.104650706324E+00
  3.896015829018E+00  3.696128985021E+00  3.505004628761E+00  3.322603051954E+00
  3.148834182723E+00  2.983561768720E+00  2.826607868211E+00  2.677757571585E+00
  2.536763876002E+00  2.403352637710E+00  2.277227529765E+00  2.158074937230E+00
  2.045568727181E+00  1.939374836592E+00  1.839155627312E+00  1.744573963404E+00
  1.655296972082E+00  1.570999454992E+00  1.491366921739E+00  1.416098222172E+00
  1.344907758231E+00  1.277527260148E+00  1.213707115737E+00  1.153217245676E+00
  1.095847522463E+00  1.041407736215E+00  9.897271167793E-01  9.406534290527E-01
  8.940509651313E-01  8.497955673223E-01  8.077684565598E-01  7.678562206601E-01
  7.299506472349E-01  6.939485848242E-01  6.597517775244E-01  6.272666836910E-01
  5.964042895101E-01  5.670799280950E-01  5.392131144114E-01  5.127274038052E-01
  4.875502688370E-01  4.636129724912E-01  4.408504262814E-01  4.192010401865E-01
  3.986065669795E-01  3.790119437578E-01  3.603651341607E-01  3.426169746184E-01
  3.257210280366E-01  3.096334476663E-01  2.943128499473E-01  2.797201919291E-01
  2.658186514617E-01  2.525735091058E-01  2.399520337089E-01  2.279233712413E-01
  2.164584373060E-01  2.055298135080E-01  1.951116478421E-01  1.851795592212E-01
  1.757105462262E-01  1.666829001250E-01  1.580761221773E-01  1.498708452124E-01
  1.420487594443E-01  1.345925424630E-01  1.274857933241E-01  1.207129706392E-01
  1.142593345577E-01  1.081108925148E-01  1.022543486142E-01  9.667705650089E-02
  9.136697557880E-02  8.631263041695E-02  8.150307319062E-02  7.692784899341E-02
  7.257696387071E-02  6.844085540682E-02  6.451036571327E-02  6.077671666291E-02
  5.723148721858E-02  5.386659270905E-02  5.067426590975E-02  4.764703979045E-02
  4.477773179815E-02  4.205942954870E-02  3.948547780725E-02  3.704946664353E-02
  3.474522065456E-02  3.256678915354E-02  3.050843723034E-02  2.856463759475E-02
  2.673006312039E-02  2.499958001243E-02  2.336824152850E-02  2.183128218734E-02
  2.038411240489E-02  1.902231350266E-02  1.774163303769E-02  1.653798040772E-02
  1.540742269001E-02  1.434618067448E-02  1.335062505796E-02  1.241727276802E-02
  1.154278338870E-02  1.072395566389E-02  9.957724057395E-03  9.241155351025E-03
  8.571445265499E-03  7.945915091334E-03  7.362008319763E-03  6.817287266048E-03
  6.309429679969E-03  5.836225340433E-03  5.395572633164E-03  4.985475112262E-03
  4.604038048037E-03  4.249464964960E-03  3.920054174762E-03  3.614195310713E-03
  3.330365869878E-03  3.067127770738E-03  2.823123933898E-03  2.597074893820E-03
  2.387775449527E-03  2.194091362052E-03  2.014956106191E-03  1.849367683665E-03
  1.696385504358E-03  1.555127341724E-03  1.424766367825E-03  1.304528272824E-03
  1.193688473073E-03  1.091569411243E-03  9.975379512569E-04  9.110028701361E-04
  8.314124481962E-04  7.582521584491E-04  6.910424554707E-04  6.293366634704E-04
  5.727189628122E-04  5.208024737916E-04  4.732274360827E-04  4.296594819192E-04
  3.897880007706E-04  3.533245930160E-04  3.200016099001E-04  2.895707768741E-04
  2.618018972819E-04  2.364816332416E-04  2.134123604925E-04  1.924110939228E-04
  1.733084804716E-04  1.559478560921E-04  1.401843634813E-04  1.258841273202E-04
  1.129234838216E-04  1.011882614531E-04  9.057310978730E-05  8.098087352706E-05
  7.232200886120E-05  6.451403942126E-05  5.748104923403E-05  5.115321019286E-05
  4.546634170398E-05  4.036150029894E-05  3.578459714024E-05  3.168604148178E-05
  2.802040827870E-05  2.474612826962E-05  2.182519897877E-05  1.922291520354E-05
  1.690761766524E-05  1.485045860535E-05  1.302518320722E-05  1.140792581278E-05
  9.977019986131E-06  8.712821550556E-06  7.597543792708E-06  6.615104088606E-06
  5.750981259965E-06  4.992083017718E-06  4.326622892407E-06  3.744006089179E-06
  3.234723738890E-06  2.790255046934E-06  2.402976868313E-06  2.066080261686E-06
  1.773493597085E-06  1.519811812110E-06  1.300231430023E-06  1.110490970547E-06
  9.468164006790E-07  8.058712885111E-07  6.847113382507E-07  5.807429993493E-07
  4.916858570452E-07  4.155385257518E-07  3.505477806244E-07  2.951806763302E-07
  2.480994155408E-07  2.081387429487E-07  1.742856536594E-07  1.456612176070E-07
  1.215043341490E-07  1.011572431805E-07  8.405263094057E-08  6.970218012814E-08
  5.768642497451E-08  4.764578250432E-08  3.927264133946E-08  3.230439903829E-08
  2.651734810602E-08  2.172131945038E-08  1.775500018734E-08  1.448185032477E-08
  1.178654997148E-08  9.571915344363E-09  7.756227988656E-09  6.270927299270E-09
  5.058621653327E-09  4.071378252699E-09  3.269256152293E-09  2.619050935245E-09
  2.093223115242E-09  1.668985617601E-09  1.327528642006E-09  1.053362860695E-09
  8.337642803574E-10  6.583062156447E-10  5.184657082685E-10  4.072933985312E-10
  3.191373351240E-10  2.494125124838E-10  1.944090701003E-10  1.511330909754E-10
  1.171748118704E-10  9.059981981591E-11  6.985947025421E-11  5.371733371194E-11
  4.118897059861E-11  3.149275712303E-11  2.400984802299E-11  1.825167153137E-11
  1.383361565319E-11  1.045378854682E-11  7.875925030055E-12  5.915670773693E-12
  4.429609826241E-12  3.306513431048E-12  2.460381879209E-12  1.824929189663E-12
  1.349225148267E-12  9.942627609296E-13  7.302632779004E-13  5.345671630077E-13
  3.899890219921E-13  2.835386792732E-13  2.054302421901E-13  1.483169075436E-13
  1.067021114301E-13  7.648795519542E-14  5.463012025756E-14  3.887509611512E-14
  2.756080600044E-14  1.946588418232E-14  1.369615166917E-14  9.599427959997E-15
  6.701846053585E-15  4.660424843276E-15  3.227884250179E-15  2.226644773838E-15
  1.529689762289E-15  1.046535229027E-15  7.129856330422E-16  4.836845675493E-16
  3.267202281326E-16  2.197352274682E-16  1.471331261608E-16  9.808109063576E-17
  6.508797813478E-17  4.299651256268E-17  2.827213175365E-17  1.850343082475E-17
  1.205283941041E-17  7.813476659881E-18  5.040699190596E-18  3.235947833934E-18
  2.067033229975E-18  0.000000000000E+00  0.000000000000E+00  0.000000000000E+00
  0.000000000000E+00
</data>
</radfunc>
</valence-charge>
<pseudocore-charge matching-radius="0.925815378406"
 number-of-continuous-derivatives="4">
<annotation model-charge-form="Teter function with specified parameters" />
<radfunc>
<data npts="290">
  6.281668311539E+01  6.281384397099E+01  6.280535651824E+01  6.279119554418E+01
  6.277150487822E+01  6.274561007951E+01  6.271260143621E+01  6.267479532220E+01
  6.263227570349E+01  6.258267677559E+01  6.252675175740E+01  6.246594277800E+01
  6.239242056022E+01  6.231559779410E+01  6.222492635135E+01  6.213432301318E+01
  6.202992982393E+01  6.193091583476E+01  6.181953489886E+01  6.169426764205E+01
  6.155341482048E+01  6.142824234684E+01  6.129081167170E+01  6.113995262300E+01
  6.097438968065E+01  6.079273384304E+01  6.059347416386E+01  6.043149450882E+01
  6.025794846962E+01  6.007204607264E+01  5.987294891519E+01  5.965976806613E+01
  5.943156202352E+01  5.918733476220E+01  5.892603391046E+01  5.864654910143E+01
  5.834771055260E+01  5.802828793532E+01  5.780326861790E+01  5.756813010034E+01
  5.732246227940E+01  5.706584294617E+01  5.679783791233E+01  5.651800120312E+01
  5.622587532499E+01  5.592099161593E+01  5.560287068775E+01  5.527102296965E+01
  5.492494936342E+01  5.456414202125E+01  5.418808525749E+01  5.379625660691E+01
  5.338812804198E+01  5.296316736296E+01  5.252083977461E+01  5.206060966431E+01
  5.158194259632E+01  5.108430753784E+01  5.056717933210E+01  5.003004143428E+01
  4.947238892564E+01  4.889373182087E+01  4.829359868333E+01  4.767154056148E+01
  4.702713525876E+01  4.635999194758E+01  4.566975613535E+01  4.531587900058E+01
  4.495611498846E+01  4.459043243653E+01  4.421880301610E+01  4.384120192939E+01
  4.345760811212E+01  4.306800444131E+01  4.267237794840E+01  4.227072003727E+01
  4.186302670722E+01  4.144929878046E+01  4.102954213402E+01  4.060376793579E+01
  4.017199288417E+01  3.973423945125E+01  3.929053612891E+01  3.884091767745E+01
  3.838542537623E+01  3.792410727586E+01  3.745701845126E+01  3.698422125487E+01
  3.650578556954E+01  3.602178906010E+01  3.553231742290E+01  3.503746463241E+01
  3.453733318398E+01  3.403203433167E+01  3.352168832018E+01  3.300642460958E+01
  3.248638209183E+01  3.196170929763E+01  3.143256459241E+01  3.089911635990E+01
  3.036154317189E+01  2.982003394262E+01  2.927478806618E+01  2.872601553523E+01
  2.817393703931E+01  2.761878404094E+01  2.706079882778E+01  2.650023453871E+01
  2.593735516219E+01  2.537243550477E+01  2.480576112775E+01  2.423762825011E+01
  2.366834361560E+01  2.309822432201E+01  2.252759761068E+01  2.195680061422E+01
  2.138618006062E+01  2.081609193184E+01  2.024690107518E+01  1.967898076575E+01
  1.911271221844E+01  1.854848404811E+01  1.798669167670E+01  1.742773668622E+01
  1.687202611682E+01  1.631997170935E+01  1.577198909212E+01  1.522849691175E+01
  1.468991590858E+01  1.415666793714E+01  1.362917493281E+01  1.310785782616E+01
  1.259313540675E+01  1.208542313887E+01  1.158513193197E+01  1.109266686928E+01
  1.060842589839E+01  1.013279848833E+01  9.666164258181E+00  9.208891582828E+00
  8.761336182064E+00  8.323839699852E+00  7.896728281129E+00  7.480311154140E+00
  7.074879226812E+00  6.680703706246E+00  6.298034750882E+00  5.927100165368E+00
  5.568104148549E+00  5.221226105347E+00  4.886619533572E+00  4.564410996862E+00
  4.254699195088E+00  3.957554143474E+00  3.673016471613E+00  3.401096853257E+00
  3.141775577362E+00  2.895002270352E+00  2.660695778825E+00  2.438744221110E+00
  2.229005215015E+00  2.031306287965E+00  1.845445474317E+00  1.671192103168E+00
  1.508287778254E+00  1.356447549711E+00  1.215361275515E+00  1.084695168297E+00
  9.640935210432E-01  8.531806029123E-01  7.515627140679E-01  6.588303860727E-01
  5.745607120622E-01  4.983197886309E-01  4.296652491876E-01  3.681488664953E-01
  3.133192002669E-01  2.647242640749E-01  2.219141845162E-01  1.844438245840E-01
  1.518753425935E-01  1.237806578251E-01  9.974379432583E-02  7.936307507356E-02
  6.225313999071E-02  4.804676309564E-02  3.639644641256E-02  2.697577110777E-02
  1.948048965994E-02  1.362934666589E-02  9.164620076513E-03  5.852379183348E-03
  3.482460449698E-03  1.868167205967E-03  8.457041964037E-04  2.733628552525E-04
  3.047787697352E-05  1.617999700737E-05  1.479737851203E-04  3.601725457083E-04
  6.022250003898E-04  8.369701936259E-04  1.038857926780E-03  1.192171928694E-03
  1.289291878576E-03  1.329028309044E-03  1.315061367756E-03  1.254510476294E-03
  1.156657202528E-03  1.031838301092E-03  8.905200511546E-04  7.425589341105E-04
  5.966475686705E-04  4.599388912831E-04  3.378360711787E-04  2.339308071348E-04
  1.500686711562E-04  8.651721323976E-05  4.221074764241E-05  1.504517743961E-05
  2.196892904464E-06  4.416479213810E-07  6.452259775062E-06  1.705781223499E-05
  2.945153730388E-05  4.133943314796E-05  5.102664458621E-05  5.744338098425E-05
  6.011638083112E-05  5.909539349663E-05  5.484663179798E-05  4.812652040481E-05
  3.984927471057E-05  3.096093235538E-05  2.233055377169E-05  1.466661784927E-05
  8.463436935543E-06  3.979015671455E-06  1.242507196707E-06  8.658668257083E-08
  1.979261709367E-07  1.177701123158E-06  2.603777082503E-06  4.086897226775E-06
  5.314695471006E-06  6.079479585309E-06  6.288180681866E-06  5.955331114022E-06
  5.182099058844E-06  4.126006922286E-06  2.966805493305E-06  1.873986963261E-06
  9.806370695331E-07  3.669033668160E-07  5.453858456935E-08  0.000000000000E+00
  0.000000000000E+00  0.000000000000E+00  0.000000000000E+00  0.000000000000E+00
  0.000000000000E+00  0.000000000000E+00  0.000000000000E+00  0.000000000000E+00
  0.000000000000E+00  0.000000000000E+00  0.000000000000E+00  0.000000000000E+00
  0.000000000000E+00  0.000000000000E+00  0.000000000000E+00  0.000000000000E+00
  0.000000000000E+00  0.000000000000E+00  0.000000000000E+00  0.000000000000E+00
  0.000000000000E+00  0.000000000000E+00  0.000000000000E+00  0.000000000000E+00
  0.000000000000E+00  0.000000000000E+00  0.000000000000E+00  0.000000000000E+00
  0.000000000000E+00  0.000000000000E+00  0.000000000000E+00  0.000000000000E+00
  0.000000000000E+00  0.000000000000E+00
</data>
</radfunc>
</pseudocore-charge>
<semilocal-potentials set="lj">
<slps n="5" l="s" j="0.5" rc="2.10852984796" eref="-0.303240990822">
<radfunc>
<data npts="290">
  5.953534292070E+00  5.950339956829E+00  5.940796072701E+00  5.924890415657E+00
  5.902810978186E+00  5.873840432517E+00  5.837018861379E+00  5.794993415353E+00
  5.747915950057E+00  5.693249704697E+00  5.631931008862E+00  5.565639267802E+00
  5.486014867836E+00  5.403426257804E+00  5.306743361076E+00  5.210981650862E+00
  5.101683375522E+00  4.999031070218E+00  4.884720920972E+00  4.757609544531E+00
  4.616486925286E+00  4.492650011149E+00  4.358363480269E+00  4.212942050259E+00
  4.055693367415E+00  3.885926248495E+00  3.702960609682E+00  3.556678246537E+00
  3.402336768014E+00  3.239686808701E+00  3.068498129316E+00  2.888563940326E+00
  2.699705544234E+00  2.501777268289E+00  2.294671648049E+00  2.078324809885E+00
  1.852721987473E+00  1.617903093921E+00  1.456283929297E+00  1.290657536594E+00
  1.121083218627E+00  9.476345841069E-01  7.704001659722E-01  5.894839945292E-01
  4.050061173529E-01  2.171030578477E-01  2.592820439474E-02 -1.683478778437E-01
 -3.655372201315E-01 -5.654343156734E-01 -7.678160842401E-01 -9.724419421048E-01
 -1.179053982787E+00 -1.387377273305E+00 -1.597120269761E+00 -1.807975355173E+00
 -2.019619501502E+00 -2.231715056860E+00 -2.443910657992E+00 -2.655842267212E+00
 -2.867134332251E+00 -3.077401066807E+00 -3.286247849146E+00 -3.493272735810E+00
 -3.698068087455E+00 -3.900222304039E+00 -4.099321667036E+00 -4.197596389276E+00
 -4.294952287053E+00 -4.391337934211E+00 -4.486702156200E+00 -4.580994099995E+00
 -4.674163305700E+00 -4.766159779870E+00 -4.856934070594E+00 -4.946437344368E+00
 -5.034621464807E+00 -5.121439073257E+00 -5.206843671341E+00 -5.290789705528E+00
 -5.373232653761E+00 -5.454129114232E+00 -5.533436896367E+00 -5.611115114082E+00
 -5.687124281400E+00 -5.761426410471E+00 -5.833985112088E+00 -5.904765698726E+00
 -5.973735290184E+00 -6.040862921851E+00 -6.106119655616E+00 -6.169478693459E+00
 -6.230915493663E+00 -6.290407889653E+00 -6.347936211350E+00 -6.403483408956E+00
 -6.457035178993E+00 -6.508580092406E+00 -6.558109724445E+00 -6.605618785995E+00
 -6.651105255933E+00 -6.694570513995E+00 -6.736019473553E+00 -6.775460713559E+00
 -6.812906608817E+00 -6.848373457586E+00 -6.881881605367E+00 -6.913455563596E+00
 -6.943124121741E+00 -6.970920451182E+00 -6.996882199037E+00 -7.021051569920E+00
 -7.043475393436E+00 -7.064205175048E+00 -7.083297127790E+00 -7.100812182141E+00
 -7.116815971259E+00 -7.131378788712E+00 -7.144575515728E+00 -7.156485515048E+00
 -7.167192488444E+00 -7.176784295112E+00 -7.185352728261E+00 -7.192993247483E+00
 -7.199804664753E+00 -7.205888782266E+00 -7.211349980774E+00 -7.216294757541E+00
 -7.220831213611E+00 -7.225068490713E+00 -7.229116158748E+00 -7.233083555552E+00
 -7.237079081336E+00 -7.241209450973E+00 -7.245578908058E+00 -7.250288405431E+00
 -7.255434757587E+00 -7.261109771097E+00 -7.267399359831E+00 -7.274382652353E+00
 -7.282131099392E+00 -7.290707589706E+00 -7.300165582986E+00 -7.310548268695E+00
 -7.321887759783E+00 -7.334204330279E+00 -7.347505705573E+00 -7.361786414018E+00
 -7.377027208136E+00 -7.393194563358E+00 -7.410240261844E+00 -7.428101068515E+00
 -7.446698506199E+00 -7.465938736600E+00 -7.485712553866E+00 -7.505895497852E+00