<?xml version="1.0" encoding="UTF-8" ?>
<psml version="1.1" energy_unit="hartree" length_unit="bohr"
 uuid="510d8240-53a1-11e8-4533-1b529b35adee"
 xmlns="http://esl.cecam.org/PSML/ns/1.1">
<provenance creator="ONCVPSP-3.3.0+psml-3.3.0-73 (fully-relativistic)"
 date="2018-05-09">
<annotation action="semilocal-pseudopotential-generation"
 action-cont="projectors-generation" />
<input-file name="oncvpsp-input">
<![CDATA[# atsym z nc nv iexc psfile
In 49 6 5 -116133 upf
# n l f
1 0 2.0
2 0 2.0
2 1 6.0
3 0 2.0
3 1 6.0
3 2 10.0
4 0 2.0
4 1 6.0
4 2 10.0
5 0 2.0
5 1 1.0
# lmax
2
# l rc ep ncon nbas qcut
0 1.6 0.0 5 8 9.0
1 1.6 0.0 5 8 8.8
2 1.7 0.0 4 7 9.0
# lloc lpopt rc5 dvloc0
4 5 1.5 0.0
# l nproj debl
0 2 1.0
1 2 1.0
2 2 1.5
# icmod fcfact rcfact
3 5.0 1.44
# epsh1 epsh2 depsh
-12.0 12.0 0.02
# rlmax drl
6.0 0.01
 0
]]>
</input-file>
</provenance>
<pseudo-atom-spec atomic-label="In" atomic-number="49" z-pseudo="21"
 flavor="Hamann&apos;s oncvpsp" relativity="dirac" spin-dft="no"
 core-corrections="yes">
<annotation pseudo-energy="-190.274241187" />
<exchange-correlation>
<annotation oncvpsp-xc-code="-116133" oncvpsp-xc-type="libxc-interface" />
<libxc-info number-of-functionals="2">
<functional name="Perdew, Burke &amp; Ernzerhof SOL (GGA)" type="exchange"
 id="116" />
<functional name="Perdew, Burke &amp; Ernzerhof SOL (GGA)" type="correlation"
 id="133" />
</libxc-info>
</exchange-correlation>
<valence-configuration total-valence-charge="21">
<shell n="4" l="s" occupation="2" />
<shell n="4" l="p" occupation="6" />
<shell n="4" l="d" occupation="10" />
<shell n="5" l="s" occupation="2" />
<shell n="5" l="p" occupation="1" />
</valence-configuration>
</pseudo-atom-spec>
<grid npts="457">
<annotation type="sampled from oncvpsp log grid"
 recipe="r(i:1..N) = r1*exp(a*(i-1)) + r=0; resampled"
 recipe-cont="r1: scale; a: step" scale="0.102040816327E-04"
 step="0.119285708653E-01" delta="0.500000000000E-02" rmax="44.1581064066" />
<grid-data>
  0.000000000000E+00  5.042436366198E-03  1.007187092528E-02  1.510941245291E-02
  2.011777176121E-02  2.523536637175E-02  3.054202401815E-02  3.566518465412E-02
  4.066587435065E-02  4.581790627188E-02  5.101053189425E-02  5.611822836574E-02
  6.173735967777E-02  6.711377067229E-02  7.295838755272E-02  7.837152581763E-02
  8.418629118611E-02  8.936016040508E-02  9.485200209104E-02  1.006813580000E-01
  1.068689708730E-01  1.120917571602E-01  1.175697858846E-01  1.233155309823E-01
  1.293420760023E-01  1.356631438985E-01  1.422931282787E-01  1.474773974107E-01
  1.528505487941E-01  1.584194641135E-01  1.641912757790E-01  1.701733760607E-01
  1.763734265569E-01  1.827993680065E-01  1.894594304590E-01  1.963621438154E-01
  2.035163487527E-01  2.109312080467E-01  2.160239311338E-01  2.212396129270E-01
  2.265812221416E-01  2.320517991689E-01  2.376544578081E-01  2.433923870374E-01
  2.492688528300E-01  2.552872000128E-01  2.614508541699E-01  2.677633235929E-01
  2.742282012778E-01  2.808491669694E-01  2.876299892567E-01  2.945745277173E-01
  3.016867351146E-01  3.089706596472E-01  3.164304472537E-01  3.240703439722E-01
  3.318946983570E-01  3.399079639542E-01  3.481147018359E-01  3.565195831970E-01
  3.651273920137E-01  3.739430277665E-01  3.829715082289E-01  3.922179723236E-01
  4.016876830473E-01  4.113860304668E-01  4.213185347864E-01  4.263743572039E-01
  4.314908494903E-01  4.366687396842E-01  4.419087645604E-01  4.472116697351E-01
  4.525782097720E-01  4.580091482892E-01  4.635052580687E-01  4.690673211655E-01
  4.746961290195E-01  4.803924825677E-01  4.861571923585E-01  4.919910786669E-01
  4.978949716109E-01  5.038697112702E-01  5.099161478054E-01  5.160351415791E-01
  5.222275632780E-01  5.284942940374E-01  5.348362255658E-01  5.412542602726E-01
  5.477493113959E-01  5.543223031326E-01  5.609741707702E-01  5.677058608195E-01
  5.745183311493E-01  5.814125511231E-01  5.883895017366E-01  5.954501757574E-01
  6.025955778665E-01  6.098267248009E-01  6.171446454985E-01  6.245503812445E-01
  6.320449858194E-01  6.396295256493E-01  6.473050799571E-01  6.550727409165E-01
  6.629336138075E-01  6.708888171732E-01  6.789394829793E-01  6.870867567751E-01
  6.953317978564E-01  7.036757794306E-01  7.121198887838E-01  7.206653274492E-01
  7.293133113786E-01  7.380650711151E-01  7.469218519685E-01  7.558849141921E-01
  7.649555331624E-01  7.741349995604E-01  7.834246195551E-01  7.928257149898E-01
  8.023396235697E-01  8.119676990525E-01  8.217113114411E-01  8.315718471784E-01
  8.415507093446E-01  8.516493178567E-01  8.618691096710E-01  8.722115389870E-01
  8.826780774549E-01  8.932702143843E-01  9.039894569569E-01  9.148373304404E-01
  9.258153784057E-01  9.369251629466E-01  9.481682649019E-01  9.595462840808E-01
  9.710608394897E-01  9.827135695636E-01  9.945061323984E-01  1.006440205987E+00
  1.018517488459E+00  1.030739698321E+00  1.043108574700E+00  1.055625877597E+00
  1.068293388128E+00  1.081112908785E+00  1.094086263691E+00  1.107215298855E+00
  1.120501882441E+00  1.133947905031E+00  1.147555279891E+00  1.161325943250E+00
  1.175261854569E+00  1.189364996824E+00  1.203637376785E+00  1.218081025307E+00
  1.232697997611E+00  1.247490373582E+00  1.262460258065E+00  1.277609781162E+00
  1.292941098536E+00  1.308456391718E+00  1.324157868419E+00  1.340047762840E+00
  1.356128335994E+00  1.372401876026E+00  1.388870698538E+00  1.405537146920E+00
  1.422403592684E+00  1.439472435796E+00  1.456746105025E+00  1.474227058286E+00
  1.491917782985E+00  1.509820796381E+00  1.527938645937E+00  1.546273909689E+00
  1.564829196605E+00  1.583607146964E+00  1.602610432728E+00  1.621841757920E+00
  1.641303859016E+00  1.660999505324E+00  1.680931499388E+00  1.701102677380E+00
  1.721515909509E+00  1.742174100423E+00  1.763080189628E+00  1.784237151904E+00
  1.805647997726E+00  1.827315773699E+00  1.849243562983E+00  1.871434485739E+00
  1.893891699568E+00  1.916618399963E+00  1.939617820762E+00  1.962893234612E+00
  1.986447953427E+00  2.010285328868E+00  2.034408752815E+00  2.058821657848E+00
  2.083527517742E+00  2.108529847955E+00  2.133832206131E+00  2.159438192604E+00
  2.185351450916E+00  2.211575668327E+00  2.238114576347E+00  2.264971951263E+00
  2.292151614678E+00  2.319657434054E+00  2.347493323263E+00  2.375663243142E+00
  2.404171202060E+00  2.433021256484E+00  2.462217511562E+00  2.491764121701E+00
  2.521665291161E+00  2.551925274655E+00  2.582548377951E+00  2.613538958486E+00
  2.644901425988E+00  2.676640243100E+00  2.708759926017E+00  2.741265045130E+00
  2.774160225671E+00  2.807450148379E+00  2.841139550160E+00  2.875233224762E+00
  2.909736023459E+00  2.944652855740E+00  2.979988690009E+00  3.015748554289E+00
  3.051937536941E+00  3.088560787384E+00  3.125623516833E+00  3.163130999035E+00
  3.201088571023E+00  3.239501633875E+00  3.278375653482E+00  3.317716161324E+00
  3.357528755259E+00  3.397819100323E+00  3.438592929526E+00  3.479856044681E+00
  3.521614317217E+00  3.563873689024E+00  3.606640173292E+00  3.649919855371E+00
  3.693718893636E+00  3.738043520359E+00  3.782900042604E+00  3.828294843115E+00
  3.874234381232E+00  3.920725193807E+00  3.967773896133E+00  4.015387182886E+00
  4.063571829081E+00  4.112334691030E+00  4.161682707322E+00  4.211622899810E+00
  4.262162374608E+00  4.313308323103E+00  4.365068022981E+00  4.417448839256E+00
  4.470458225327E+00  4.524103724031E+00  4.578392968720E+00  4.633333684344E+00
  4.688933688556E+00  4.745200892819E+00  4.802143303533E+00  4.859769023175E+00
  4.918086251453E+00  4.977103286471E+00  5.036828525909E+00  5.097270468219E+00
  5.158437713838E+00  5.220338966404E+00  5.282983034001E+00  5.346378830409E+00
  5.410535376374E+00  5.475461800890E+00  5.541167342501E+00  5.607661350611E+00
  5.674953286818E+00  5.743052726260E+00  5.811969358975E+00  5.881712991283E+00
  5.952293547178E+00  6.023721069745E+00  6.096005722582E+00  6.169157791252E+00
  6.243187684748E+00  6.318105936964E+00  6.393923208208E+00  6.470650286707E+00
  6.548298090147E+00  6.626877667229E+00  6.706400199236E+00  6.786877001626E+00
  6.868319525646E+00  6.950739359954E+00  7.034148232273E+00  7.118558011060E+00
  7.203980707193E+00  7.290428475679E+00  7.377913617388E+00  7.466448580796E+00
  7.556045963766E+00  7.646718515331E+00  7.738479137515E+00  7.831340887165E+00
  7.925316977811E+00  8.020420781545E+00  8.116665830923E+00  8.214065820894E+00
  8.312634610745E+00  8.412386226074E+00  8.513334860787E+00  8.615494879116E+00
  8.718880817666E+00  8.823507387478E+00  8.929389476128E+00  9.036542149841E+00
  9.144980655639E+00  9.254720423507E+00  9.365777068589E+00  9.478166393412E+00
  9.591904390133E+00  9.707007242815E+00  9.823491329728E+00  9.941373225685E+00
  1.006066970439E+01  1.018139774085E+01  1.030357451374E+01  1.042721740790E+01
  1.055234401680E+01  1.067897214500E+01  1.080711981074E+01  1.093680524847E+01
  1.106804691145E+01  1.120086347439E+01  1.133527383608E+01  1.147129712211E+01
  1.160895268758E+01  1.174826011983E+01  1.188923924126E+01  1.203191011216E+01
  1.217629303351E+01  1.232240854991E+01  1.247027745251E+01  1.261992078194E+01
  1.277135983132E+01  1.292461614930E+01  1.307971154309E+01  1.323666808160E+01
  1.339550809858E+01  1.355625419577E+01  1.371892924612E+01  1.388355639707E+01
  1.405015907383E+01  1.421876098272E+01  1.438938611451E+01  1.456205874789E+01
  1.473680345286E+01  1.491364509430E+01  1.509260883543E+01  1.527372014145E+01
  1.545700478315E+01  1.564248884055E+01  1.583019870663E+01  1.602016109111E+01
  1.621240302421E+01  1.640695186050E+01  1.660383528282E+01  1.680308130622E+01
  1.700471828189E+01  1.720877490128E+01  1.741528020009E+01  1.762426356249E+01
  1.783575472524E+01  1.804978378194E+01  1.826638118733E+01  1.848557776158E+01
  1.870740469471E+01  1.893189355105E+01  1.915907627366E+01  1.938898518895E+01
  1.962165301122E+01  1.985711284735E+01  2.009539820152E+01  2.033654297994E+01
  2.058058149570E+01  2.082754847364E+01  2.107747905533E+01  2.133040880399E+01
  2.158637370964E+01  2.184541019416E+01  2.210755511649E+01  2.237284577788E+01
  2.264131992722E+01  2.291301576634E+01  2.318797195554E+01  2.346622761901E+01
  2.374782235043E+01  2.403279621864E+01  2.432118977326E+01  2.461304405054E+01
  2.490840057915E+01  2.520730138610E+01  2.550978900273E+01  2.581590647077E+01
  2.612569734841E+01  2.643920571660E+01  2.675647618519E+01  2.707755389942E+01
  2.740248454621E+01  2.773131436076E+01  2.806409013309E+01  2.840085921469E+01
  2.874166952527E+01  2.908656955957E+01  2.943560839428E+01  2.978883569502E+01
  3.014630172336E+01  3.050805734404E+01  3.087415403217E+01  3.124464388055E+01
  3.161957960712E+01  3.199901456240E+01  3.238300273715E+01  3.277159877000E+01
  3.316485795524E+01  3.356283625070E+01  3.396559028571E+01  3.437317736914E+01
  3.478565549757E+01  3.520308336354E+01  3.562552036390E+01  3.605302660827E+01
  3.648566292757E+01  3.692349088270E+01  3.736657277329E+01  3.781497164657E+01
  3.826875130633E+01  3.872797632200E+01  3.919271203787E+01  3.966302458232E+01
  4.013898087731E+01  4.062064864784E+01  4.110809643161E+01  4.160139358879E+01
  4.210061031186E+01  4.260581763560E+01  4.311708744723E+01  4.363449249659E+01
  4.415810640655E+01
</grid-data>
</grid>
<valence-charge total-charge="21" is-unscreening-charge="yes"
 rescaled-to-z-pseudo="no">
<radfunc>
<data npts="457">
  6.229627591127E+00  6.233432175511E+00  6.244805972370E+00  6.263783497853E+00
  6.290173180249E+00  6.324880619891E+00  6.369127609216E+00  6.419811753945E+00
  6.476822801535E+00  6.543336029351E+00  6.618345245479E+00  6.699919488791E+00
  6.798567329662E+00  6.901664467294E+00  7.023371967603E+00  7.145012934949E+00
  7.285195192334E+00  7.418177919872E+00  7.567793817362E+00  7.736086981903E+00
  7.925341253308E+00  8.093539331719E+00  8.278214313655E+00  8.480929970641E+00
  8.703385664200E+00  8.947424642381E+00  9.215041810712E+00  9.432517160810E+00
  9.665431954177E+00  9.914807743947E+00  1.018171922167E+01  1.046729396012E+01
  1.077271136381E+01  1.109920063240E+01  1.144803750605E+01  1.182053952131E+01
  1.221805946007E+01  1.264197662252E+01  1.293994161245E+01  1.325067252067E+01
  1.357458135353E+01  1.391207541624E+01  1.426355428318E+01  1.462940633514E+01
  1.501000482037E+01  1.540570339388E+01  1.581683108780E+01  1.624368666397E+01
  1.668653229919E+01  1.714558655328E+01  1.762101657154E+01  1.811292947480E+01
  1.862136289461E+01  1.914627461647E+01  1.968753130203E+01  2.024489627171E+01
  2.081801634299E+01  2.140640773668E+01  2.200944108490E+01  2.262632560041E+01
  2.325609249743E+01  2.389757779102E+01  2.454940464394E+01  2.520996547855E+01
  2.587740412612E+01  2.654959834709E+01  2.722414312286E+01  2.756146423850E+01
  2.789833519244E+01  2.823436923224E+01  2.856915938389E+01  2.890227816793E+01
  2.923327737032E+01  2.956168787439E+01  2.988701956049E+01  3.020876128020E+01
  3.052638091216E+01  3.083932550702E+01  3.114702152881E+01  3.144887520067E+01
  3.174427296254E+01  3.203258204871E+01  3.231315119311E+01  3.258531147005E+01
  3.284837727810E+01  3.310164747436E+01  3.334440666647E+01  3.357592666869E+01
  3.379546812844E+01  3.400228232873E+01  3.419561317111E+01  3.437469934321E+01
  3.453877667347E+01  3.468708067486E+01  3.481884927785E+01  3.493332575155E+01
  3.502976181024E+01  3.510742090078E+01  3.516558166444E+01  3.520354156467E+01
  3.522062067005E+01  3.521616557935E+01  3.518955347324E+01  3.514019627448E+01
  3.506754489591E+01  3.497109355276E+01  3.485038411324E+01  3.470501045833E+01
  3.453462281930E+01  3.433893205874E+01  3.411771385819E+01  3.387081277362E+01
  3.359814611720E+01  3.329970762259E+01  3.297557084898E+01  3.262589227826E+01
  3.225091405878E+01  3.185096634910E+01  3.142646921549E+01  3.097793403770E+01
  3.050596437936E+01  3.001125628170E+01  2.949459794213E+01  2.895686874331E+01
  2.839903760300E+01  2.782216062003E+01  2.722737799868E+01  2.661591023990E+01
  2.598905359643E+01  2.534817479648E+01  2.469470505020E+01  2.403013336246E+01
  2.335599918515E+01  2.267388445278E+01  2.198540505482E+01  2.129220180869E+01
  2.059593100705E+01  1.989825462223E+01  1.920083025949E+01  1.850530095837E+01
  1.781328494813E+01  1.712636546833E+01  1.644608076970E+01  1.577391441199E+01
  1.511128597612E+01  1.445954230564E+01  1.381994938896E+01  1.319368498739E+01
  1.258183210617E+01  1.198537339508E+01  1.140518655311E+01  1.084204079797E+01
  1.029659444495E+01  9.769393623724E+00  9.260872143119E+00  8.771352496075E+00
  8.301047978365E+00  7.850065876472E+00  7.418411662575E+00  7.005994118297E+00
  6.612631294095E+00  6.238057198346E+00  5.881929099628E+00  5.543835317553E+00
  5.223303372129E+00  4.919808358904E+00  4.632781417232E+00  4.361618161737E+00
  4.105686952277E+00  3.864336885272E+00  3.636905398778E+00  3.422725394984E+00
  3.221131796460E+00  3.031467466257E+00  2.853088436509E+00  2.685368405272E+00
  2.527702476696E+00  2.379510134979E+00  2.240237457669E+00  2.109358598332E+00
  1.986376627997E+00  1.870823870902E+00  1.762261768236E+00  1.660280228847E+00
  1.564495811397E+00  1.474547136210E+00  1.390089222196E+00  1.310793384367E+00
  1.236346931493E+00  1.166452875295E+00  1.100829586451E+00  1.039210405280E+00
  9.813432144354E-01  9.269899804011E-01  8.759262700594E-01  8.279407480738E-01
  7.828346603245E-01  7.404213081395E-01  7.005255175866E-01  6.629831076393E-01
  6.276403605980E-01  5.943534977365E-01  5.629881627645E-01  5.334189153373E-01
  5.055287365121E-01  4.792085477434E-01  4.543567447304E-01  4.308787471698E-01
  4.086865652352E-01  3.876983833940E-01  3.678381619793E-01  3.490352567708E-01
  3.312240566813E-01  3.143436395196E-01  2.983374456779E-01  2.831529694978E-01
  2.687414679764E-01  2.550576864065E-01  2.420596004796E-01  2.297081743329E-01
  2.179671339813E-01  2.068027555435E-01  1.961836676500E-01  1.860806674047E-01
  1.764665492637E-01  1.673159461915E-01  1.586051824566E-01  1.503121374351E-01
  1.424161198004E-01  1.348977514913E-01  1.277388608650E-01  1.209223844593E-01
  1.144322768101E-01  1.082534277871E-01  1.023715869358E-01  9.677329433413E-02
  9.144581749500E-02  8.637709387018E-02  8.155567853272E-02  7.697069663330E-02
  7.261180026251E-02  6.846912935329E-02  6.453327629367E-02  6.079525393490E-02
  5.724646670128E-02  5.387868452722E-02  5.068401936559E-02  4.765490402979E-02
  4.478407314836E-02  4.206454602813E-02  3.948961123658E-02  3.705281272962E-02
  3.474793736432E-02  3.256900364957E-02  3.051025160005E-02  2.856613357016E-02
  2.673130595574E-02  2.500062166114E-02  2.336912323877E-02  2.183203661670E-02
  2.038476533794E-02  1.902288524232E-02  1.774213952866E-02  1.653843414093E-02
  1.540783342860E-02  1.434655603448E-02  1.335097097141E-02  1.241759385105E-02
  1.154308323304E-02  1.072423706697E-02  9.957989203286E-03  9.241405952202E-03
  8.571682673423E-03  7.946140382399E-03  7.362222361767E-03  6.817490769376E-03
  6.309623236789E-03  5.836409454556E-03  5.395747742644E-03  4.985641606383E-03
  4.604196279990E-03  4.249615261204E-03  3.920196841875E-03  3.614330640331E-03
  3.330494142211E-03  3.067249257004E-03  2.823238897980E-03  2.597183593338E-03
  2.387878136495E-03  2.194188283242E-03  2.015047503291E-03  1.849453793295E-03
  1.696466558008E-03  1.555203565631E-03  1.424837982823E-03  1.304595494193E-03
  1.193751510390E-03  1.091628468239E-03  9.975932257032E-04  9.110545537399E-04
  8.314607265275E-04  7.582972108871E-04  6.910844551722E-04  6.293757773612E-04
  5.727553515977E-04  5.208362919870E-04  4.732588320605E-04  4.296885979720E-04
  3.898149731885E-04  3.533495521772E-04  3.200246803724E-04  2.895920775260E-04
  2.618215414034E-04  2.364997286724E-04  2.134290097561E-04  1.924263943667E-04
  1.733225244125E-04  1.559607309643E-04  1.401961519884E-04  1.258949075895E-04
  1.129333295602E-04  1.011972421048E-04  9.058129069091E-05  8.098831607445E-05
  7.232877065518E-05  6.452017443287E-05  5.748660795876E-05  5.115823980542E-05
  4.547088621132E-05  4.036560069119E-05  3.578829153916E-05  3.168936528661E-05
  2.802339430895E-05  2.474880690471E-05  2.182759829408E-05  1.922506110292E-05
  1.690953400951E-05  1.485216733679E-05  1.302670446982E-05  1.140927806814E-05
  9.978220124927E-06  8.713884999372E-06  7.598484616324E-06  6.615935087593E-06
  5.751714063608E-06  4.992728172270E-06  4.327189944698E-06  3.744503665628E-06
  3.235159619986E-06  2.790636237273E-06  2.403309662293E-06  2.066370304970E-06
  1.773745943969E-06  1.520030978934E-06  1.300421444769E-06  1.110655418796E-06
  9.469584680742E-07  8.059937999029E-07  6.848167936986E-07  5.808336071457E-07
  4.917635639361E-07  4.156050445252E-07  3.506046152342E-07  2.952291447197E-07
  2.481406703279E-07  2.081737901258E-07  1.743153694595E-07  1.456863636781E-07
  1.215255711743E-07  1.011751430737E-07  8.406768773936E-08  6.971481970131E-08
  5.769701365118E-08  4.765463472643E-08  3.928002643173E-08  3.231054718300E-08
  2.652245560324E-08  2.172555333596E-08  1.775850228722E-08  1.448474078506E-08
  1.178893034601E-08  9.573871277377E-09  7.757831542197E-09  6.272238967522E-09
  5.059692101592E-09  4.072249814953E-09  3.269964117482E-09  2.619624649624E-09
  2.093686924373E-09  1.669359669440E-09  1.327829569775E-09  1.053604362045E-09
  8.339576072898E-10  6.584605878638E-10  5.185886610145E-10  4.073910745030E-10
  3.192147288238E-10  2.494736741894E-10  1.944572756725E-10  1.511709828372E-10
  1.172045157296E-10  9.062304103605E-11  6.987757319851E-11  5.373140688476E-11
  4.119987997342E-11  3.150118967358E-11  2.401634715423E-11  1.825666583268E-11
  1.383744216332E-11  1.045671152183E-11  7.878151037722E-12  5.917360796374E-12
  4.430888935179E-12  3.307478495346E-12  2.461107689403E-12  1.825473306479E-12
  1.349631729627E-12  9.945655727025E-13  7.304880547367E-13  5.347334534054E-13
  3.901116254451E-13  2.836287618946E-13  2.054961997775E-13  1.483650309502E-13
  1.067370977300E-13  7.651329899247E-14  5.464841216940E-14  3.888824962835E-14
  2.757022925546E-14  1.947260957516E-14  1.370093326303E-14  9.602814424814E-15
  6.704235072526E-15  4.662103538290E-15  3.229059101681E-15  2.227463677195E-15
  1.530258222529E-15  1.046928203475E-15  7.132561559492E-16  4.838700051328E-16
  3.268467960525E-16  2.198212395781E-16  1.471913208356E-16  9.812028935560E-17
  6.511426280331E-17  4.301405749734E-17  2.828378899830E-17  1.851114005165E-17
  1.205791366056E-17  7.816800604780E-18  5.042866049612E-18  3.237353478353E-18
  2.067940547972E-18  0.000000000000E+00  0.000000000000E+00  0.000000000000E+00
  0.000000000000E+00
</data>
</radfunc>
</valence-charge>
<pseudocore-charge matching-radius="0.560974170770"
 number-of-continuous-derivatives="4">
<annotation model-charge-form="Teter function with specified parameters" />
<radfunc>
<data npts="290">
  1.837738107199E+02  1.837511880786E+02  1.836835688845E+02  1.835707818076E+02
  1.834140209485E+02  1.832079887073E+02  1.829455540400E+02  1.826452510459E+02
  1.823078568614E+02  1.819147553214E+02  1.814721188238E+02  1.809915518289E+02
  1.804115219324E+02  1.798066321850E+02  1.790942492721E+02  1.783840755703E+02
  1.775678867157E+02  1.767958045952E+02  1.759296719526E+02  1.749585673497E+02
  1.738704447358E+02  1.729068338484E+02  1.718525125514E+02  1.706995750689E+02
  1.694395593534E+02  1.680634369557E+02  1.665616102191E+02  1.653466553828E+02
  1.640507993800E+02  1.626693885522E+02  1.611976145357E+02  1.596305282386E+02
  1.579630579064E+02  1.561900318655E+02  1.543062065768E+02  1.523063006819E+02
  1.501850357608E+02  1.479371845557E+02  1.463657568160E+02  1.447343124052E+02
  1.430414178433E+02  1.412856939153E+02  1.394658271876E+02  1.375805825002E+02
  1.356288164643E+02  1.336094919916E+02  1.315216938694E+02  1.293646453891E+02
  1.271377260220E+02  1.248404901235E+02  1.224726866289E+02  1.200342796867E+02
  1.175254701522E+02  1.149467178389E+02  1.122987643989E+02  1.095826566702E+02
  1.067997702953E+02  1.039518333771E+02  1.010409498964E+02  9.806962257222E+01
  9.504077479786E+01  9.195777123788E+01  8.882443661957E+01  8.564507220251E+01
  8.242446935928E+01  7.916791965234E+01  7.588122074825E+01  7.422851587676E+01
  7.257067747241E+01  7.090857214082E+01  6.924309727841E+01  6.757518057300E+01
  6.590577938786E+01  6.423588002380E+01  6.256649685343E+01  6.089867132243E+01
  5.923347081253E+01  5.757198736143E+01  5.591533623518E+01  5.426465434887E+01
  5.262109853205E+01  5.098584363594E+01  4.936008047986E+01  4.774501363531E+01
  4.614185904671E+01  4.455184148881E+01  4.297619186159E+01  4.141614432467E+01
  3.987293327426E+01  3.834779016688E+01  3.684194019540E+01  3.535659882443E+01
  3.389296819318E+01  3.245223339586E+01  3.103555865098E+01  2.964408337252E+01
  2.827891815790E+01  2.694114070897E+01  2.563179170442E+01  2.435187064324E+01
  2.310233168117E+01  2.188407948318E+01  2.069796511710E+01  1.954478201487E+01
  1.842526202935E+01  1.734007161613E+01  1.628980817062E+01  1.527499655223E+01
  1.429608582760E+01  1.335344626593E+01  1.244736661934E+01  1.157805172140E+01
  1.074562043630E+01  9.950103990724E+00  9.191444718881E+00  8.469495249980E+00
  7.784018165093E+00  7.134686147965E+00  6.521082651331E+00  5.942703096770E+00
  5.398956622209E+00  4.889168386687E+00  4.412582437103E+00  3.968365136283E+00
  3.555609145941E+00  3.173337951978E+00  2.820510913112E+00  2.496028807212E+00
  2.198739842814E+00  1.927446096513E+00  1.680910330010E+00  1.457863133996E+00
  1.257010339627E+00  1.077040632403E+00  9.166332978613E-01  7.744660237744E-01
  6.492226796891E-01  5.396009917509E-01  4.443200289886E-01  3.621274166952E-01
  2.918061933523E-01  2.321812297846E-01  1.821251329739E-01  1.405635622407E-01
  1.064798923180E-01  7.891916617877E-02  5.699129024245E-02  3.987343568924E-02
  2.681162187706E-02  1.712147109592E-02  1.018813786056E-02  5.465430351867E-03
  2.474156150993E-03  7.997387179252E-04  8.916477783119E-05  4.733550961325E-05
  4.329057987392E-04  1.053705448279E-03  1.761843792821E-03  2.448604324731E-03
  3.039238471892E-03  3.487767381268E-03  3.771897367153E-03  3.888148574464E-03
  3.847287486338E-03  3.670142379104E-03  3.383867012123E-03  3.018702154172E-03
  2.605267505490E-03  2.172398767934E-03  1.745526696307E-03  1.345577616604E-03
  9.883588104312E-04  6.843779986438E-04  4.390345080363E-04  2.531110714765E-04
  1.234899641761E-04  4.401552985464E-05  6.427136244287E-06  1.292066334665E-06
  1.887645618664E-05  4.990360842851E-05  8.616216223883E-05  1.209408836287E-04
  1.492813765196E-04  1.680539070285E-04  1.758739214506E-04  1.728869644218E-04
  1.604569682890E-04  1.407968968249E-04  1.165813396186E-04  9.057798406734E-05
  6.532931633100E-05  4.290803205228E-05  2.476027036600E-05  1.164083865291E-05
  3.635026095953E-06  2.533143079903E-07  5.790443695892E-07  3.445432209376E-06
  7.617499253147E-06  1.195645233298E-05  1.554844654450E-05  1.778586635232E-05
  1.839643338505E-05  1.742266287623E-05  1.516052813267E-05  1.207086999122E-05
  8.679559698623E-06  5.482456385754E-06  2.868910013447E-06  1.073396851627E-06
  1.595557584467E-07  0.000000000000E+00  0.000000000000E+00  0.000000000000E+00
  0.000000000000E+00  0.000000000000E+00  0.000000000000E+00  0.000000000000E+00
  0.000000000000E+00  0.000000000000E+00  0.000000000000E+00  0.000000000000E+00
  0.000000000000E+00  0.000000000000E+00  0.000000000000E+00  0.000000000000E+00
  0.000000000000E+00  0.000000000000E+00  0.000000000000E+00  0.000000000000E+00
  0.000000000000E+00  0.000000000000E+00  0.000000000000E+00  0.000000000000E+00
  0.000000000000E+00  0.000000000000E+00  0.000000000000E+00  0.000000000000E+00
  0.000000000000E+00  0.000000000000E+00  0.000000000000E+00  0.000000000000E+00
  0.000000000000E+00  0.000000000000E+00  0.000000000000E+00  0.000000000000E+00
  0.000000000000E+00  0.000000000000E+00  0.000000000000E+00  0.000000000000E+00
  0.000000000000E+00  0.000000000000E+00  0.000000000000E+00  0.000000000000E+00
  0.000000000000E+00  0.000000000000E+00  0.000000000000E+00  0.000000000000E+00
  0.000000000000E+00  0.000000000000E+00  0.000000000000E+00  0.000000000000E+00
  0.000000000000E+00  0.000000000000E+00  0.000000000000E+00  0.000000000000E+00
  0.000000000000E+00  0.000000000000E+00  0.000000000000E+00  0.000000000000E+00
  0.000000000000E+00  0.000000000000E+00  0.000000000000E+00  0.000000000000E+00
  0.000000000000E+00  0.000000000000E+00  0.000000000000E+00  0.000000000000E+00
  0.000000000000E+00  0.000000000000E+00  0.000000000000E+00  0.000000000000E+00
  0.000000000000E+00  0.000000000000E+00  0.000000000000E+00  0.000000000000E+00
  0.000000000000E+00  0.000000000000E+00
</data>
</radfunc>
</pseudocore-charge>
<semilocal-potentials set="lj">
<slps n="4" l="s" j="0.5" rc="1.60261043273" eref="-4.38861637405">
<radfunc>
<data npts="290">
 -1.968108151365E+01 -1.968235057333E+01 -1.968614317097E+01 -1.969246709884E+01
 -1.970125241613E+01 -1.971279160781E+01 -1.972747749881E+01 -1.974426572891E+01
 -1.976310617175E+01 -1.978502891163E+01 -1.980967752655E+01 -1.983639446774E+01
 -1.986858026905E+01 -1.990207487756E+01 -1.994142935580E+01 -1.998056253876E+01
 -2.002541539606E+01 -2.006772441320E+01 -2.011504870712E+01 -2.016793467499E+01
 -2.022697557911E+01 -2.027906881651E+01 -2.033586006656E+01 -2.039771767771E+01
 -2.046502755433E+01 -2.053819149515E+01 -2.061762483304E+01 -2.068156992201E+01
 -2.074946295518E+01 -2.082148679143E+01 -2.089782361407E+01 -2.097865324442E+01
 -2.106415118570E+01 -2.115448637359E+01 -2.124981861023E+01 -2.135029565915E+01
 -2.145604998043E+01 -2.156719508746E+01 -2.164433248964E+01 -2.172392684228E+01
 -2.180599235245E+01 -2.189053652115E+01 -2.197755944099E+01 -2.206705305836E+01
 -2.215900040077E+01 -2.225337477067E+01 -2.235013890706E+01 -2.244924411707E+01
 -2.255062937952E+01 -2.265422042350E+01 -2.275992878499E+01 -2.286765084521E+01
 -2.297726685488E+01 -2.308863994880E+01 -2.320161515600E+01 -2.331601841079E+01
 -2.343165557079E+01 -2.354831144827E+01 -2.366574886185E+01 -2.378370771568E+01
 -2.390190411416E+01 -2.402002952028E+01 -2.413774996647E+01 -2.425470532727E+01
 -2.437050866359E+01 -2.448474564909E+01 -2.459697408962E+01 -2.465218920498E+01
 -2.470672354770E+01 -2.476051385768E+01 -2.481349508439E+01 -2.486560038617E+01
 -2.491676113189E+01 -2.496690690514E+01 -2.501596551100E+01 -2.506386298557E+01
 -2.511052360833E+01 -2.515586991756E+01 -2.519982272883E+01 -2.524230115676E+01
 -2.528322264013E+01 -2.532250297064E+01 -2.536005632514E+01 -2.539579530184E+01
 -2.542963096028E+01 -2.546147286541E+01 -2.549122913593E+01 -2.551880649672E+01
 -2.554411033592E+01 -2.556704476634E+01 -2.558751269162E+01 -2.560541587704E+01
 -2.562065502526E+01 -2.563312985687E+01 -2.564273919605E+01 -2.564938106125E+01
 -2.565295276112E+01 -2.565335099566E+01 -2.565047196281E+01 -2.564421147050E+01
 -2.563446505425E+01 -2.562112810069E+01 -2.560409597683E+01 -2.558326416568E+01
 -2.555852840815E+01 -2.552978485176E+01 -2.549693020650E+01 -2.545986190822E+01
 -2.541847829024E+01 -2.537267876368E+01 -2.532236400736E+01 -2.526743616821E+01
 -2.520779907296E+01 -2.514335845265E+01 -2.507402218091E+01 -2.499970052776E+01
 -2.492030643052E+01 -2.483575578368E+01 -2.474596774987E+01 -2.465086509422E+01
 -2.455037454459E+01 -2.444442718062E+01 -2.433295885439E+01 -2.421591064617E+01
 -2.409322935878E+01 -2.396486805431E+01 -2.383078663727E+01 -2.369095248847E+01
 -2.354534115412E+01 -2.339393709453E+01 -2.323673449731E+01 -2.307373815926E+01
 -2.290496444154E+01 -2.273044230160E+01 -2.255021440534E+01 -2.236433832122E+01
 -2.217288779723E+01 -2.197595411919E+01 -2.177364754669E+01 -2.156609881979E+01
 -2.135346072529E+01 -2.113590970716E+01 -2.091364749945E+01 -2.068690275355E+01
 -2.045593262343E+01 -2.022102426402E+01 -1.998249618714E+01 -1.974069940894E+01
 -1.949601831044E+01 -1.924887112080E+01 -1.899970992012E+01 -1.874902004693E+01