<?xml version="1.0" encoding="UTF-8" ?>
<psml version="1.1" energy_unit="hartree" length_unit="bohr"
 uuid="201654c0-539f-11e8-7144-0ad2edcc3b26"
 xmlns="http://esl.cecam.org/PSML/ns/1.1">
<provenance creator="ONCVPSP-3.3.0+psml-3.3.0-73 (fully-relativistic)"
 date="2018-05-09">
<annotation action="semilocal-pseudopotential-generation"
 action-cont="projectors-generation" />
<input-file name="oncvpsp-input">
<![CDATA[# atsym z nc nv iexc psfile
Mo 42 6 4 -116133 upf
# n l f
1 0 2.0
2 0 2.0
2 1 6.0
3 0 2.0
3 1 6.0
3 2 10.0
4 0 2.0
4 1 6.0
4 2 5.0
5 0 1.0
# lmax
2
# l rc ep ncon nbas qcut
0 1.45 0.0 4 7 8.2
1 1.45 0.0 4 7 8.8
2 1.35 0.0 4 7 8.8
# lloc lpopt rc5 dvloc0
4 5 1.25 0.0
# l nproj debl
0 2 1.0
1 2 2.0
2 2 2.0
# icmod fcfact
3 3 1.3
# epsh1 epsh2 depsh
-12.0 12.0 0.02
# rlmax drl
6.0 0.01
 0
]]>
</input-file>
</provenance>
<pseudo-atom-spec atomic-label="Mo" atomic-number="42" z-pseudo="14"
 flavor="Hamann&apos;s oncvpsp" relativity="dirac" spin-dft="no"
 core-corrections="yes">
<annotation pseudo-energy="-68.0648376493" />
<exchange-correlation>
<annotation oncvpsp-xc-code="-116133" oncvpsp-xc-type="libxc-interface" />
<libxc-info number-of-functionals="2">
<functional name="Perdew, Burke &amp; Ernzerhof SOL (GGA)" type="exchange"
 id="116" />
<functional name="Perdew, Burke &amp; Ernzerhof SOL (GGA)" type="correlation"
 id="133" />
</libxc-info>
</exchange-correlation>
<valence-configuration total-valence-charge="14">
<shell n="4" l="s" occupation="2" />
<shell n="4" l="p" occupation="6" />
<shell n="4" l="d" occupation="5" />
<shell n="5" l="s" occupation="1" />
</valence-configuration>
</pseudo-atom-spec>
<grid npts="457">
<annotation type="sampled from oncvpsp log grid"
 recipe="r(i:1..N) = r1*exp(a*(i-1)) + r=0; resampled"
 recipe-cont="r1: scale; a: step" scale="0.119047619048E-04"
 step="0.119285708653E-01" delta="0.500000000000E-02" rmax="44.1174669210" />
<grid-data>
  0.000000000000E+00  5.037795722915E-03  1.006260160451E-02  1.509550699367E-02
  2.009925702039E-02  2.521214181819E-02  3.051391565380E-02  3.563236135451E-02
  4.111599021390E-02  4.632504811410E-02  5.157514903245E-02  5.673938074985E-02
  6.242070819516E-02  6.785662873951E-02  7.289124265956E-02  7.829939911767E-02
  8.410881305485E-02  8.927792067056E-02  9.476470811758E-02  1.005886991673E-01
  1.067706174709E-01  1.119885971355E-01  1.174615843333E-01  1.232020415203E-01
  1.292230402044E-01  1.355382907102E-01  1.421621733986E-01  1.473416713561E-01
  1.527098777334E-01  1.582736678816E-01  1.640401676468E-01  1.700167624959E-01
  1.762111069761E-01  1.826311345182E-01  1.892850675976E-01  1.961814282649E-01
  2.033290490610E-01  2.107370843290E-01  2.158251204930E-01  2.210360022022E-01
  2.263726954394E-01  2.318382377981E-01  2.374357402114E-01  2.431683887231E-01
  2.490394463004E-01  2.550522546919E-01  2.612102363292E-01  2.675168962751E-01
  2.739758242188E-01  2.805906965187E-01  2.873652782955E-01  2.943034255747E-01
  3.014090874817E-01  3.086863084899E-01  3.161392307221E-01  3.237720963086E-01
  3.315892498019E-01  3.395951406491E-01  3.477943257249E-01  3.561914719253E-01
  3.647913588234E-01  3.735988813908E-01  3.826190527831E-01  3.918570071935E-01
  4.013180027752E-01  4.110074246342E-01  4.209307878946E-01  4.259819573493E-01
  4.310937408375E-01  4.362668657276E-01  4.415020681163E-01  4.468000929337E-01
  4.521616940489E-01  4.575876343775E-01  4.630786859900E-01  4.686356302219E-01
  4.742592577846E-01  4.799503688780E-01  4.857097733045E-01  4.915382905842E-01
  4.974367500712E-01  5.034059910720E-01  5.094468629649E-01  5.155602253205E-01
  5.217469480243E-01  5.280079114006E-01  5.343440063374E-01  5.407561344135E-01
  5.472452080264E-01  5.538121505228E-01  5.604578963290E-01  5.671833910850E-01
  5.739895917780E-01  5.808774668793E-01  5.878479964819E-01  5.949021724397E-01
  6.020409985089E-01  6.092654904910E-01  6.165766763769E-01  6.239755964935E-01
  6.314633036514E-01  6.390408632952E-01  6.467093536547E-01  6.544698658986E-01
  6.623235042894E-01  6.702713863409E-01  6.783146429769E-01  6.864544186927E-01
  6.946918717170E-01  7.030281741776E-01  7.114645122677E-01  7.200020864149E-01
  7.286421114519E-01  7.373858167893E-01  7.462344465908E-01  7.551892599499E-01
  7.642515310693E-01  7.734225494421E-01  7.827036200354E-01  7.920960634759E-01
  8.016012162376E-01  8.112204308324E-01  8.209550760024E-01  8.308065369144E-01
  8.407762153574E-01  8.508655299417E-01  8.610759163010E-01  8.714088272966E-01
  8.818657332242E-01  8.924481220229E-01  9.031574994871E-01  9.139953894810E-01
  9.249633341547E-01  9.360628941646E-01  9.472956488946E-01  9.586631966813E-01
  9.701671550415E-01  9.818091609020E-01  9.935908708328E-01  1.005513961283E+00
  1.017580128818E+00  1.029791090364E+00  1.042148583448E+00  1.054654366450E+00
  1.067310218847E+00  1.080117941473E+00  1.093079356771E+00  1.106196309052E+00
  1.119470664761E+00  1.132904312738E+00  1.146499164491E+00  1.160257154465E+00
  1.174180240318E+00  1.188270403202E+00  1.202529648041E+00  1.216960003817E+00
  1.231563523863E+00  1.246342286149E+00  1.261298393583E+00  1.276433974306E+00
  1.291751181998E+00  1.307252196182E+00  1.322939222536E+00  1.338814493206E+00
  1.354880267125E+00  1.371138830330E+00  1.387592496294E+00  1.404243606250E+00
  1.421094529525E+00  1.438147663879E+00  1.455405435846E+00  1.472870301076E+00
  1.490544744689E+00  1.508431281625E+00  1.526532457004E+00  1.544850846488E+00
  1.563389056646E+00  1.582149725326E+00  1.601135522030E+00  1.620349148294E+00
  1.639793338074E+00  1.659470858131E+00  1.679384508428E+00  1.699537122529E+00
  1.719931568000E+00  1.740570746816E+00  1.761457595778E+00  1.782595086927E+00
  1.803986227970E+00  1.825634062706E+00  1.847541671458E+00  1.869712171516E+00
  1.892148717574E+00  1.914854502185E+00  1.937832756211E+00  1.961086749286E+00
  1.984619790277E+00  2.008435227760E+00  2.032536450493E+00  2.056926887899E+00
  2.081610010554E+00  2.106589330681E+00  2.131868402649E+00  2.157450823481E+00
  2.183340233362E+00  2.209540316163E+00  2.236054799957E+00  2.262887457556E+00
  2.290042107047E+00  2.317522612331E+00  2.345332883679E+00  2.373476878284E+00
  2.401958600823E+00  2.430782104033E+00  2.459951489281E+00  2.489470907153E+00
  2.519344558039E+00  2.549576692735E+00  2.580171613048E+00  2.611133672404E+00
  2.642467276473E+00  2.674176883791E+00  2.706267006396E+00  2.738742210473E+00
  2.771607116999E+00  2.804866402403E+00  2.838524799232E+00  2.872587096822E+00
  2.907058141984E+00  2.941942839688E+00  2.977246153764E+00  3.012973107610E+00
  3.049128784901E+00  3.085718330320E+00  3.122746950283E+00  3.160219913687E+00
  3.198142552651E+00  3.236520263283E+00  3.275358506442E+00  3.314662808520E+00
  3.354438762222E+00  3.394692027369E+00  3.435428331697E+00  3.476653471677E+00
  3.518373313337E+00  3.560593793097E+00  3.603320918615E+00  3.646560769638E+00
  3.690319498874E+00  3.734603332860E+00  3.779418572855E+00  3.824771595729E+00
  3.870668854878E+00  3.917116881136E+00  3.964122283710E+00  4.011691751114E+00
  4.059832052128E+00  4.108550036753E+00  4.157852637194E+00  4.207746868840E+00
  4.258239831267E+00  4.309338709242E+00  4.361050773753E+00  4.413383383038E+00
  4.466343983634E+00  4.519940111438E+00  4.574179392775E+00  4.629069545488E+00
  4.684618380034E+00  4.740833800595E+00  4.797723806202E+00  4.855296491876E+00
  4.913560049779E+00  4.972522770376E+00  5.032193043620E+00  5.092579360144E+00
  5.153690312466E+00  5.215534596215E+00  5.278121011370E+00  5.341458463506E+00
  5.405555965068E+00  5.470422636649E+00  5.536067708289E+00  5.602500520788E+00
  5.669730527038E+00  5.737767293362E+00  5.806620500883E+00  5.876299946893E+00
  5.946815546256E+00  6.018177332811E+00  6.090395460805E+00  6.163480206334E+00
  6.237441968810E+00  6.312291272436E+00  6.388038767705E+00  6.464695232918E+00
  6.542271575713E+00  6.620778834621E+00  6.700228180637E+00  6.780630918805E+00
  6.861998489830E+00  6.944342471708E+00  7.027674581369E+00  7.112006676345E+00
  7.197350756461E+00  7.283718965539E+00  7.371123593125E+00  7.459577076243E+00
  7.549092001158E+00  7.639681105172E+00  7.731357278434E+00  7.824133565775E+00
  7.918023168564E+00  8.013039446587E+00  8.109195919946E+00  8.206506270985E+00
  8.304984346237E+00  8.404644158392E+00  8.505499888293E+00  8.607565886952E+00
  8.710856677596E+00  8.815386957727E+00  8.921171601219E+00  9.028225660434E+00
  9.136564368359E+00  9.246203140780E+00  9.357157578469E+00  9.469443469411E+00
  9.583076791044E+00  9.698073712536E+00  9.814450597086E+00  9.932224004252E+00
  1.005141069230E+01  1.017202762061E+01  1.029409195206E+01  1.041762105548E+01
  1.054263250815E+01  1.066914409825E+01  1.079717382742E+01  1.092673991335E+01
  1.105786079231E+01  1.119055512182E+01  1.132484178328E+01  1.146073988468E+01
  1.159826876330E+01  1.173744798846E+01  1.187829736432E+01  1.202083693269E+01
  1.216508697588E+01  1.231106801960E+01  1.245880083583E+01  1.260830644586E+01
  1.275960612321E+01  1.291272139669E+01  1.306767405345E+01  1.322448614209E+01
  1.338317997580E+01  1.354377813551E+01  1.370630347313E+01  1.387077911481E+01
  1.403722846419E+01  1.420567520576E+01  1.437614330823E+01  1.454865702792E+01
  1.472324091226E+01  1.489991980321E+01  1.507871884085E+01  1.525966346694E+01
  1.544277942854E+01  1.562809278168E+01  1.581562989506E+01  1.600541745380E+01
  1.619748246325E+01  1.639185225281E+01  1.658855447984E+01  1.678761713360E+01
  1.698906853920E+01  1.719293736167E+01  1.739925261001E+01  1.760804364133E+01
  1.781934016503E+01  1.803317224701E+01  1.824957031397E+01  1.846856515774E+01
  1.869018793963E+01  1.891447019491E+01  1.914144383725E+01  1.937114116329E+01
  1.960359485725E+01  1.983883799554E+01  2.007690405149E+01  2.031782690011E+01
  2.056164082291E+01  2.080838051278E+01  2.105808107894E+01  2.131077805188E+01
  2.156650738851E+01  2.182530547717E+01  2.208720914289E+01  2.235225565261E+01
  2.262048272044E+01  2.289192851308E+01  2.316663165524E+01  2.344463123510E+01
  2.372596680993E+01  2.401067841164E+01  2.429880655258E+01  2.459039223122E+01
  2.488547693799E+01  2.518410266125E+01  2.548631189318E+01  2.579214763590E+01
  2.610165340753E+01  2.641487324842E+01  2.673185172740E+01  2.705263394813E+01
  2.737726555551E+01  2.770579274217E+01  2.803826225508E+01  2.837472140214E+01
  2.871521805897E+01  2.905980067567E+01  2.940851828378E+01  2.976142050319E+01
  3.011855754923E+01  3.047998023982E+01  3.084574000269E+01  3.121588888273E+01
  3.159047954932E+01  3.196956530391E+01  3.235320008756E+01  3.274143848861E+01
  3.313433575047E+01  3.353194777948E+01  3.393433115283E+01  3.434154312667E+01
  3.475364164419E+01  3.517068534392E+01  3.559273356804E+01  3.601984637086E+01
  3.645208452731E+01  3.688950954164E+01  3.733218365614E+01  3.778016986001E+01
  3.823353189833E+01  3.869233428111E+01  3.915664229248E+01  3.962652199999E+01
  4.010204026399E+01  4.058326474716E+01  4.107026392413E+01  4.156310709122E+01
  4.206186437631E+01  4.256660674883E+01  4.307740602981E+01  4.359433490217E+01
  4.411746692100E+01
</grid-data>
</grid>
<valence-charge total-charge="14" is-unscreening-charge="yes"
 rescaled-to-z-pseudo="no">
<radfunc>
<data npts="457">
  4.846848023403E-02  4.888763292601E-02  5.014142169143E-02  5.223584256525E-02
  5.515335425885E-02  5.899939588659E-02  6.391729788564E-02  6.957097112414E-02
  7.662559221871E-02  8.429388605041E-02  9.298837990310E-02  1.024999586444E-01
  1.140803152872E-01  1.262740764254E-01  1.385564697470E-01  1.528291596430E-01
  1.694304729324E-01  1.853304375550E-01  2.033949032596E-01  2.239364874986E-01
  2.473168945284E-01  2.683447009130E-01  2.917015369187E-01  3.176639178354E-01
  3.465439685666E-01  3.786942798321E-01  4.145134055471E-01  4.440543911670E-01
  4.761230254760E-01  5.109514378567E-01  5.487942313742E-01  5.899306005504E-01
  6.346665988209E-01  6.833375500339E-01  7.363105924742E-01  7.939873363036E-01
  8.568066056425E-01  9.252472243814E-01  9.742530120190E-01  1.026153728383E+00
  1.081124359102E+00  1.139349523150E+00  1.201023755785E+00  1.266351751252E+00
  1.335548554331E+00  1.408839688233E+00  1.486461204541E+00  1.568659638938E+00
  1.655691854359E+00  1.747824750922E+00  1.845334819560E+00  1.948507513705E+00
  2.057636410714E+00  2.173022131961E+00  2.294970987731E+00  2.423793310320E+00
  2.559801436093E+00  2.703307294849E+00  2.854619562731E+00  3.014040333337E+00
  3.181861260755E+00  3.358359128166E+00  3.543790796756E+00  3.738387492111E+00
  3.942348389504E+00  4.155833465750E+00  4.378955594090E+00  4.494150826960E+00
  4.611771870228E+00  4.731815596841E+00  4.854274172714E+00  4.979134721637E+00
  5.106378979690E+00  5.235982939796E+00  5.367916487143E+00  5.502143026384E+00
  5.638619101634E+00  5.777294010466E+00  5.918109413287E+00  6.060998939610E+00
  6.205887792993E+00  6.352692356567E+00  6.501319801301E+00  6.651667699386E+00
  6.803623645326E+00  6.957064887570E+00  7.111857973751E+00  7.267858412859E+00
  7.424910357893E+00  7.582846312801E+00  7.741486867761E+00  7.900640467076E+00
  8.060103214191E+00  8.219658718564E+00  8.379077989298E+00  8.538119380639E+00
  8.696528594571E+00  8.854038745877E+00  9.010370495102E+00  9.165232254895E+00
  9.318320475194E+00  9.469320012639E+00  9.617904589498E+00  9.763737347138E+00
  9.906471498850E+00  1.004575108643E+01  1.018121184452E+01  1.031248217609E+01
  1.043918424188E+01  1.056093516583E+01  1.067734835765E+01  1.078803495274E+01
  1.089260536854E+01  1.099067097527E+01  1.108184587764E+01  1.116574880271E+01
  1.124200508761E+01  1.131024875921E+01  1.137012469609E+01  1.142129086161E+01
  1.146342059487E+01  1.149620494481E+01  1.151935503065E+01  1.153260441040E+01
  1.153571143736E+01  1.152846158282E+01  1.151066970214E+01  1.148218221964E+01
  1.144287920712E+01  1.139267632985E+01  1.133152663342E+01  1.125942214479E+01
  1.117639526109E+01  1.108251990033E+01  1.097791238952E+01  1.086273206685E+01
  1.073718157712E+01  1.060150684179E+01  1.045599668815E+01  1.030098212558E+01
  1.013683526083E+01  9.963967848397E+00  9.782829476928E+00  9.593905397290E+00
  9.397714003174E+00  9.194803980246E+00  8.985751145057E+00  8.771154999976E+00
  8.551635035244E+00  8.327826813694E+00  8.100377877646E+00  7.869943520844E+00
  7.637182470950E+00  7.402752529937E+00  7.167306220670E+00  6.931486488004E+00
  6.695922501784E+00  6.461225607279E+00  6.227985465864E+00  5.996766425223E+00
  5.768104154270E+00  5.542502573577E+00  5.320431107325E+00  5.102322277438E+00
  4.888569655473E+00  4.679525969751E+00  4.475500680948E+00  4.276757497102E+00
  4.083514047358E+00  3.895942951780E+00  3.714172658473E+00  3.538290007823E+00
  3.368347097999E+00  3.204370581902E+00  3.046364365351E+00  2.894310169054E+00
  2.748169714396E+00  2.607886303440E+00  2.473386473909E+00  2.344581613763E+00
  2.221369535548E+00  2.103636003910E+00  1.991256209818E+00  1.884096186111E+00
  1.782014159861E+00  1.684861837901E+00  1.592485622665E+00  1.504727756248E+00
  1.421427391299E+00  1.342421588031E+00  1.267546237226E+00  1.196636909682E+00
  1.129529633034E+00  1.066061597355E+00  1.006071791314E+00  9.494015710414E-01
  8.958951641326E-01  8.454001114807E-01  7.977676498389E-01  7.528530381718E-01
  7.105158309829E-01  6.706201018927E-01  6.330346207928E-01  5.976329879313E-01
  5.642937282332E-01  5.329003491814E-01  5.033413655470E-01  4.755102940356E-01
  4.493056209748E-01  4.246307459772E-01  4.013939044034E-01  3.795080713101E-01
  3.588908494244E-01  3.394643435349E-01  3.211550235376E-01  3.038935782144E-01
  2.876147616712E-01  2.722572342044E-01  2.577633992141E-01  2.440792376343E-01
  2.311541412065E-01  2.189407457870E-01  2.073947657439E-01  1.964748303766E-01
  1.861423231717E-01  1.763612245975E-01  1.670979590338E-01  1.583212463392E-01
  1.500019584654E-01  1.421129814456E-01  1.346290830079E-01  1.275267859961E-01
  1.207842477153E-01  1.143811452641E-01  1.082985668661E-01  1.025189091658E-01
  9.702578041628E-02  9.180390945369E-02  8.683906032069E-02  8.211795238021E-02
  7.762818573840E-02  7.335817178018E-02  6.929706860776E-02  6.543472116317E-02
  6.176160580924E-02  5.826877913939E-02  5.494783078544E-02  5.179083999274E-02
  4.879033573489E-02  4.593926014381E-02  4.323093503684E-02  4.065903132900E-02
  3.821754112636E-02  3.590075230508E-02  3.370322539002E-02  3.161977255665E-02
  2.964543859049E-02  2.777548364858E-02  2.600536767841E-02  2.433073636002E-02
  2.274740844754E-02  2.125136439609E-02  1.983873616926E-02  1.850579813096E-02
  1.724895893288E-02  1.606475431382E-02  1.494984074423E-02  1.390098982249E-02
  1.291508337784E-02  1.198910920207E-02  1.112015734899E-02  1.030541693981E-02
  9.542173413666E-03  8.827806164082E-03  8.159786503189E-03  7.535675897595E-03
  6.953124421791E-03  6.409869377821E-03  5.903734033253E-03  5.432626433366E-03
  4.994538247867E-03  4.587543617187E-03  4.209797968474E-03  3.859536776553E-03
  3.535074250296E-03  3.234801929874E-03  2.957187185123E-03  2.700771609734E-03
  2.464169309903E-03  2.246065089692E-03  2.045212538305E-03  1.860432027011E-03
  1.690608625449E-03  1.534689948517E-03  1.391683946121E-03  1.260656648652E-03
  1.140729881331E-03  1.031078960456E-03  9.309303842547E-04  8.395595304262E-04
  7.562883717055E-04  6.804832198532E-04  6.115525074537E-04  5.489446158224E-04
  4.921457561987E-04  4.406779102762E-04  3.940968350182E-04  3.519901356432E-04
  3.139754096638E-04  2.796984639356E-04  2.488316058342E-04  2.210720089301E-04
  1.961401528835E-04  1.737783367346E-04  1.537492643053E-04  1.358347000768E-04
  1.198341936229E-04  1.055638704880E-04  9.285528726282E-05  8.155434853805E-05
  7.152028338967E-05  6.262467905679E-05  5.475056951086E-05  4.779157666925E-05
  4.165110207397E-05  3.624156692817E-05  3.148369845712E-05  2.730586063110E-05
  2.364342735402E-05  2.043819628120E-05  1.763784148313E-05  1.519540321831E-05
  1.306881311865E-05  1.122045312629E-05  9.616746551898E-06  8.227779653484E-06
  7.026952161513E-06  5.990655203546E-06  5.097975108981E-06  4.330421603865E-06
  3.671678937280E-06  3.107378515031E-06  2.624891653715E-06  2.213141108668E-06
  1.862430072873E-06  1.564287390451E-06  1.311327777577E-06  1.097125895205E-06
  9.161031715174E-07  7.634263269144E-07  6.349166103946E-07  5.269688126222E-07
  4.364791775819E-07  3.607813909135E-07  2.975898784439E-07  2.449497027209E-07
  2.011923981533E-07  1.648971364184E-07  1.348566628533E-07  1.100474914220E-07
  8.960389039527E-08  7.279523298854E-08  5.900632680875E-08  4.772037303524E-08
  3.850424079805E-08  3.099577425197E-08  2.489287942556E-08  1.994416512413E-08
  1.594093707224E-08  1.271036719701E-08  1.010968058816E-08  8.021221344179E-09
  6.348275347924E-09  5.011543134429E-09  3.946169544016E-09  3.099248917941E-09
  2.427735312917E-09  1.896696701084E-09  1.477860495247E-09  1.148405101422E-09
  8.899586518462E-10  6.877717052745E-10  5.300356044613E-10  4.073224337269E-10
  3.121261961709E-10  2.384879979634E-10  1.816907474950E-10  1.380112054468E-10
  1.045192078628E-10  7.891557285843E-11  5.940163235015E-11  4.457453798349E-11
  3.334350785530E-11  2.486303843800E-11  1.847979285584E-11  1.261178734108E-11
  7.263734652510E-12  5.335271822091E-12  3.905397184552E-12  2.848842326886E-12
  2.070848848522E-12  1.499985893876E-12  1.082596213015E-12  7.785166729752E-13
  5.577925512146E-13  3.981639461831E-13  2.831498861690E-13  2.005934056765E-13
  1.415608070786E-13  9.951203164687E-14  6.967775612372E-14  4.859351136724E-14
  3.375260342085E-14  2.334856460869E-14  1.608480495608E-14  1.103449942464E-14
  7.537875421068E-15  5.127229350596E-15  3.472415773282E-15  2.341387658285E-15
  1.571754539840E-15  1.050371190578E-15  6.987537655396E-16  4.627059873182E-16
  3.049732181577E-16  2.000643218958E-16  1.306184092773E-16  8.486743482911E-17
  5.487247390457E-17  3.530362644689E-17  2.260006225767E-17  1.439459339648E-17
  9.121414975102E-18  5.750046394958E-18  3.605784426674E-18  2.249158540404E-18
  1.395418818804E-18  8.610437864301E-19  5.283888862702E-19  3.224490971888E-19
  1.956674747789E-19  1.180583415035E-19  7.082156205159E-20  4.223718567385E-20
  2.504116838186E-20  1.475752315754E-20  8.644509861673E-21  5.032730219204E-21
  2.911865190619E-21  1.674213203761E-21  9.565094113242E-22  5.429668009148E-22
  3.062170895249E-22  0.000000000000E+00  0.000000000000E+00  0.000000000000E+00
  0.000000000000E+00
</data>
</radfunc>
</valence-charge>
<pseudocore-charge matching-radius="0.755189259950"
 number-of-continuous-derivatives="4">
<annotation model-charge-form="Teter function with specified parameters" />
<radfunc>
<data npts="290">
  3.438909191744E+01  3.438623102739E+01  3.437767917437E+01  3.436341277632E+01
  3.434357972902E+01  3.431750514282E+01  3.428427960223E+01  3.424624198092E+01
  3.419901386518E+01  3.414796881223E+01  3.409045344515E+01  3.402796362322E+01
  3.395247650020E+01  3.387367940573E+01  3.379500544598E+01  3.370443661326E+01
  3.360021215897E+01  3.350148588107E+01  3.339057722109E+01  3.326602924437E+01
  3.312622321878E+01  3.300219259738E+01  3.286624507541E+01  3.271729083309E+01
  3.255415195380E+01  3.237555779043E+01  3.218014067289E+01  3.202165827816E+01
  3.185223136448E+01  3.167116881014E+01  3.147774579941E+01  3.127120379169E+01
  3.105075081415E+01  3.081556213985E+01  3.056478142133E+01  3.029752235754E+01
  3.001287098128E+01  2.970988866308E+01  2.949724350451E+01  2.927573668285E+01
  2.904507726198E+01  2.880497269218E+01  2.855512975940E+01  2.829525565113E+01
  2.802505914737E+01  2.774425194501E+01  2.745255012424E+01  2.714967576558E+01
  2.683535872559E+01  2.650933857956E+01  2.617136673847E+01  2.582120874721E+01
  2.545864676991E+01  2.508348226738E+01  2.469553886975E+01  2.429466544621E+01
  2.388073937114E+01  2.345366998360E+01  2.301340223425E+01  2.255992051012E+01
  2.209325262374E+01  2.161347394873E+01  2.112071167856E+01  2.061514917975E+01
  2.009703040412E+01  1.956666431806E+01  1.902442929876E+01  1.874899922398E+01
  1.847077743965E+01  1.818983265634E+01  1.790623869827E+01  1.762007461891E+01
  1.733142481083E+01  1.704037910924E+01  1.674703288825E+01  1.645148714905E+01
  1.615384859922E+01  1.585422972218E+01  1.555274883587E+01  1.524953013976E+01
  1.494470374907E+01  1.463840571524E+01  1.433077803167E+01  1.402196862352E+01
  1.371213132064E+01  1.340142581239E+01  1.309001758337E+01  1.277807782890E+01
  1.246578334922E+01  1.215331642119E+01  1.184086464664E+01  1.152862077616E+01
  1.121678250752E+01  1.090555225756E+01  1.059513690697E+01  1.028574751688E+01
  9.977599016718E+00  9.670909862730E+00  9.365901666505E+00  9.062798793306E+00
  8.761827929864E+00  8.463217621588E+00  8.167197779285E+00  7.873999155656E+00
  7.583852792060E+00  7.296989436240E+00  7.013638931947E+00  6.734029581637E+00
  6.458387483704E+00  6.186935845954E+00  5.919894277339E+00  5.657478060273E+00
  5.399897406136E+00  5.147356696925E+00  4.900053716297E+00  4.658178873601E+00
  4.421914424808E+00  4.191433694563E+00  3.966900303908E+00  3.748467408503E+00
  3.536276952488E+00  3.330458943342E+00  3.131130753379E+00  2.938396453688E+00
  2.752346186507E+00  2.573055582129E+00  2.400585226518E+00  2.234980185832E+00
  2.076269593983E+00  1.924466309278E+00  1.779566645987E+00  1.641550186403E+00
  1.510379678647E+00  1.386001025014E+00  1.268343365138E+00  1.157319257643E+00
  1.052824963253E+00  9.547408315158E-01  8.629317924372E-01  7.772479533294E-01
  6.975253001456E-01  6.235865014453E-01  5.552418119535E-01  4.922900714492E-01
  4.345197934515E-01  3.817103368863E-01  3.336331526337E-01  2.900530955935E-01
  2.507297916850E-01  2.154190480458E-01  1.838742936361E-01  1.558480365137E-01
  1.310933232538E-01  1.093651853626E-01  9.042205711538E-02  7.402714904305E-02
  5.994976133786E-02  4.796652174844E-02  3.786253311669E-02  2.943241657217E-02
  2.248123755413E-02  1.682530327066E-02  1.229282192041E-02  8.724415976225E-03
  5.973484037083E-03  3.906408159500E-03  2.402606141475E-03  1.354430899960E-03
  6.669218003052E-04  2.574154997830E-04  5.502648928949E-05  9.986574851825E-09
  4.302207888651E-05  1.442939618094E-04  2.727387073133E-04  4.050101569330E-04
  5.245342242235E-04  6.205330647120E-04  6.870622066020E-04  7.220798233305E-04
  7.265658801910E-04  7.037069318550E-04  6.581599362420E-04  5.954056531609E-04
  5.211991023341E-04  4.411212698122E-04  3.602328921402E-04  2.828278400624E-04
  2.122804973376E-04  1.509787118931E-04  1.003315035327E-04  6.083884661207E-05
  3.220958770457E-05  1.351296020795E-05  3.349241287237E-06  2.584804796656E-08
  1.726540104420E-06  6.663300709571E-06  1.320279283011E-05  1.996188863762E-05
  2.586949146292E-05  3.019454052554E-05  3.254254540080E-05  3.282508791656E-05
  3.120832791800E-05  2.804756534602E-05  2.381529682377E-05  1.902996109134E-05
  1.419174421880E-05  9.730509084984E-06  5.969259948990E-06  3.104716045511E-06
  1.204725816028E-06  2.205808811221E-07  1.094186179148E-08  3.731870220403E-07
  1.077611588654E-06  1.900056215241E-06  2.649184284455E-06  3.185661882496E-06
  3.431779849171E-06  3.371425572626E-06  3.041587757425E-06  2.517600404103E-06
  1.894979442071E-06  1.270907049255E-06  7.281683498928E-07  3.237013777609E-07
  8.299900177550E-08  5.555758597528E-10  0.000000000000E+00  0.000000000000E+00
  0.000000000000E+00  0.000000000000E+00  0.000000000000E+00  0.000000000000E+00
  0.000000000000E+00  0.000000000000E+00  0.000000000000E+00  0.000000000000E+00
  0.000000000000E+00  0.000000000000E+00  0.000000000000E+00  0.000000000000E+00
  0.000000000000E+00  0.000000000000E+00  0.000000000000E+00  0.000000000000E+00
  0.000000000000E+00  0.000000000000E+00  0.000000000000E+00  0.000000000000E+00
  0.000000000000E+00  0.000000000000E+00  0.000000000000E+00  0.000000000000E+00
  0.000000000000E+00  0.000000000000E+00  0.000000000000E+00  0.000000000000E+00
  0.000000000000E+00  0.000000000000E+00  0.000000000000E+00  0.000000000000E+00
  0.000000000000E+00  0.000000000000E+00  0.000000000000E+00  0.000000000000E+00
  0.000000000000E+00  0.000000000000E+00  0.000000000000E+00  0.000000000000E+00
  0.000000000000E+00  0.000000000000E+00  0.000000000000E+00  0.000000000000E+00
  0.000000000000E+00  0.000000000000E+00  0.000000000000E+00  0.000000000000E+00
  0.000000000000E+00  0.000000000000E+00  0.000000000000E+00  0.000000000000E+00
  0.000000000000E+00  0.000000000000E+00  0.000000000000E+00  0.000000000000E+00
  0.000000000000E+00  0.000000000000E+00
</data>
</radfunc>
</pseudocore-charge>
<semilocal-potentials set="lj">
<slps n="4" l="s" j="0.5" rc="1.45540543585" eref="-2.36190669010">
<radfunc>
<data npts="290">
  8.248420476907E+01  8.239586621960E+01  8.213264019689E+01  8.169630511183E+01
  8.109543194345E+01  8.031541321728E+01  7.933750230202E+01  7.823943341877E+01
  7.690695045068E+01  7.550389062623E+01  7.396732045971E+01  7.234878980335E+01
  7.046091724970E+01  6.856465276032E+01  6.674292124492E+01  6.472915171378E+01
  6.251528681238E+01  6.051366812937E+01  5.836822568559E+01  5.607980985539E+01
  5.365155804211E+01  5.161197978645E+01  4.949058046498E+01  4.729258834506E+01
  4.502434484201E+01  4.269327153937E+01  4.030780547168E+01  3.848860764663E+01
  3.664830626078E+01  3.479136237909E+01  3.292241174685E+01  3.104622087625E+01
  2.916764046265E+01  2.729155711333E+01  2.542284443531E+01  2.356631455477E+01
  2.172667112723E+01  1.990846484556E+01  1.871039741352E+01  1.752503388221E+01
  1.635355944803E+01  1.519710540696E+01  1.405674576937E+01  1.293349437767E+01
  1.182830253788E+01  1.074205716962E+01  9.675579472513E+00  8.629624101297E+00
  7.604878836476E+00  6.601964732174E+00  5.621436718701E+00  4.663784633445E+00
  3.729434650591E+00  2.818751077624E+00  1.932038484651E+00  1.069544131220E+00
  2.314606544911E-01 -5.820710177248E-01 -1.370958565454E+00 -2.135155022521E+00
 -2.874655405153E+00 -3.589493257349E+00 -4.279737145902E+00 -4.945487136453E+00
 -5.586871280311E+00 -6.204042139915E+00 -6.797173378640E+00 -7.084783359976E+00
 -7.366456438282E+00 -7.642218794265E+00 -7.912097324749E+00 -8.176119549323E+00
 -8.434313519272E+00 -8.686707728839E+00 -8.933331028875E+00 -9.174212542918E+00
 -9.409381585708E+00 -9.638867584138E+00 -9.862700000621E+00 -1.008090825886E+01
 -1.029352167192E+01 -1.050056937266E+01 -1.070208024632E+01 -1.089808286532E+01
 -1.108860542613E+01 -1.127367568823E+01 -1.145332091504E+01 -1.162756781688E+01
 -1.179644249592E+01 -1.195997039315E+01 -1.211817623744E+01 -1.227108399688E+01
 -1.241871683245E+01 -1.256109705425E+01 -1.269824608059E+01 -1.283018440019E+01
 -1.295693153774E+01 -1.307850602339E+01 -1.319492536630E+01 -1.330620603291E+01
 -1.341236343018E+01 -1.351341189437E+01 -1.360936468571E+01 -1.370023398946E+01
 -1.378603092385E+01 -1.386676555519E+01 -1.394244692078E+01 -1.401308305986E+01
 -1.407868105323E+01 -1.413924707186E+01 -1.419478643500E+01 -1.424530367828E+01
 -1.429080263229E+01 -1.433128651217E+01 -1.436675801867E+01 -1.439721945129E+01
 -1.442267283396E+01 -1.444312005369E+01 -1.445856301273E+01 -1.446900379437E+01
 -1.447444484290E+01 -1.447488915766E+01 -1.447034050123E+01 -1.446080362178E+01
 -1.444628448924E+01 -1.442679054508E+01 -1.440233096530E+01 -1.437291693640E+01
 -1.433856194393E+01 -1.429928207362E+01 -1.425509632513E+01 -1.420602693888E+01
 -1.415209973672E+01 -1.409334447779E+01 -1.402979523140E+01 -1.396149076921E+01
 -1.388847497997E+01 -1.381079731026E+01 -1.372851323566E+01 -1.364168476704E+01
 -1.355038099749E+01 -1.345467869552E+01 -1.335466295073E+01 -1.325042787827E+01
 -1.314207738849E+01 -1.302972602815E+01 -1.291349989935E+01 -1.279353766179E+01
 -1.266999162340E+01 -1.254302892341E+01 -1.241283281050E+01 -1.227960401709E+01
 -1.214356222830E+01 -1.200494764143E+01 -1.186402260781E+01 -1.172107334446E+01