<?xml version="1.0" encoding="UTF-8" ?>
<psml version="1.1" energy_unit="hartree" length_unit="bohr"
 uuid="4734a210-539e-11e8-6ef7-8d2cfb6f1dce"
 xmlns="http://esl.cecam.org/PSML/ns/1.1">
<provenance creator="ONCVPSP-3.3.0+psml-3.3.0-73 (fully-relativistic)"
 date="2018-05-09">
<annotation action="semilocal-pseudopotential-generation"
 action-cont="projectors-generation" />
<input-file name="oncvpsp-input">
<![CDATA[# atsym z nc nv iexc psfile
Sc 21 3 4 -116133 upf
# n l f
1 0 2.0
2 0 2.0
2 1 6.0
3 0 2.0
3 1 6.0
3 2 1.0
4 0 2.0
# lmax
2
# l rc ep ncon nbas qcut
0 1.35 0.0 4 9 8.6
1 1.35 0.0 4 8 9.0
2 1.65 0.0 4 8 8.8
# lloc lpopt rc5 dvloc0
4 5 1.3 0.0
# l nproj debl
0 2 2.0
1 2 2.0
2 2 2.0
# icmod fcfact
3 5 1.25
# epsh1 epsh2 depsh
-12.0 12.0 0.02
# rlmax drl
6.0 0.01
 0
]]>
</input-file>
</provenance>
<pseudo-atom-spec atomic-label="Sc" atomic-number="21" z-pseudo="11"
 flavor="Hamann&apos;s oncvpsp" relativity="dirac" spin-dft="no"
 core-corrections="yes">
<annotation pseudo-energy="-46.5591461126" />
<exchange-correlation>
<annotation oncvpsp-xc-code="-116133" oncvpsp-xc-type="libxc-interface" />
<libxc-info number-of-functionals="2">
<functional name="Perdew, Burke &amp; Ernzerhof SOL (GGA)" type="exchange"
 id="116" />
<functional name="Perdew, Burke &amp; Ernzerhof SOL (GGA)" type="correlation"
 id="133" />
</libxc-info>
</exchange-correlation>
<valence-configuration total-valence-charge="11">
<shell n="3" l="s" occupation="2" />
<shell n="3" l="p" occupation="6" />
<shell n="3" l="d" occupation="1" />
<shell n="4" l="s" occupation="2" />
</valence-configuration>
</pseudo-atom-spec>
<grid npts="457">
<annotation type="sampled from oncvpsp log grid"
 recipe="r(i:1..N) = r1*exp(a*(i-1)) + r=0; resampled"
 recipe-cont="r1: scale; a: step" scale="0.238095238095E-04"
 step="0.119285708653E-01" delta="0.500000000000E-02" rmax="44.1744182858" />
<grid-data>
  0.000000000000E+00  5.044299027886E-03  1.007559144583E-02  1.511499382701E-02
  2.012520320902E-02  2.524468824449E-02  3.055330615518E-02  3.567835927215E-02
  4.068089620927E-02  4.583483127647E-02  5.102937504002E-02  5.613895828010E-02
  6.176016528329E-02  6.713856230878E-02  7.298533817411E-02  7.840047603693E-02
  8.421738936325E-02  8.939316979483E-02  9.488704015153E-02  1.007185494080E-01
  1.069084479677E-01  1.121331635373E-01  1.176132158300E-01  1.233610833896E-01
  1.293898545982E-01  1.357132574790E-01  1.423456909567E-01  1.475318751429E-01
  1.529070113532E-01  1.584779838142E-01  1.642519275704E-01  1.702362376230E-01
  1.764385784003E-01  1.828668935745E-01  1.895294162352E-01  1.964346794343E-01
  2.035915271145E-01  2.110091254365E-01  2.161037297611E-01  2.213213382124E-01
  2.266649206022E-01  2.321375184453E-01  2.377422466906E-01  2.434822954947E-01
  2.493609320371E-01  2.553815023802E-01  2.615474333737E-01  2.678622346051E-01
  2.743295003974E-01  2.809529118550E-01  2.877362389588E-01  2.946833427122E-01
  3.017981773387E-01  3.090847925323E-01  3.165473357632E-01  3.241900546379E-01
  3.320172993171E-01  3.400335249918E-01  3.482432944192E-01  3.566512805196E-01
  3.652622690365E-01  3.740811612601E-01  3.831129768176E-01  3.923628565299E-01
  4.018360653379E-01  4.115379952994E-01  4.214741686579E-01  4.265318586818E-01
  4.316502409860E-01  4.368300438779E-01  4.420720044044E-01  4.473768684572E-01
  4.527453908787E-01  4.581783355693E-01  4.636764755961E-01  4.692405933033E-01
  4.748714804229E-01  4.805699381880E-01  4.863367774462E-01  4.921728187756E-01
  4.980788926009E-01  5.040558393121E-01  5.101045093838E-01  5.162257634964E-01
  5.224204726584E-01  5.286895183303E-01  5.350337925503E-01  5.414541980609E-01
  5.479516484376E-01  5.545270682189E-01  5.611813930375E-01  5.679155697539E-01
  5.747305565910E-01  5.816273232701E-01  5.886068511493E-01  5.956701333631E-01
  6.028181749635E-01  6.100519930630E-01  6.173726169798E-01  6.247810883835E-01
  6.322784614441E-01  6.398658029815E-01  6.475441926172E-01  6.553147229287E-01
  6.631784996038E-01  6.711366415990E-01  6.791902812982E-01  6.873405646738E-01
  6.955886514499E-01  7.039357152673E-01  7.123829438505E-01  7.209315391767E-01
  7.295827176468E-01  7.383377102586E-01  7.471977627817E-01  7.561641359351E-01
  7.652381055663E-01  7.744209628331E-01  7.837140143871E-01  7.931185825597E-01
  8.026360055504E-01  8.122676376171E-01  8.220148492685E-01  8.318790274597E-01
  8.418615757892E-01  8.519639146987E-01  8.621874816750E-01  8.725337314552E-01
  8.830041362326E-01  8.936001858674E-01  9.043233880978E-01  9.151752687550E-01
  9.261573719800E-01  9.372712604438E-01  9.485185155691E-01  9.599007377560E-01
  9.714195466090E-01  9.830765811683E-01  9.948735001424E-01  1.006811982144E+00
  1.018893725930E+00  1.031120450641E+00  1.043493896049E+00  1.056015822801E+00
  1.068688012675E+00  1.081512268827E+00  1.094490416053E+00  1.107624301046E+00
  1.120915792658E+00  1.134366782170E+00  1.147979183556E+00  1.161754933759E+00
  1.175695992964E+00  1.189804344879E+00  1.204081997018E+00  1.218530980982E+00
  1.233153352754E+00  1.247951192987E+00  1.262926607303E+00  1.278081726590E+00
  1.293418707309E+00  1.308939731797E+00  1.324647008579E+00  1.340542772682E+00
  1.356629285954E+00  1.372908837385E+00  1.389383743434E+00  1.406056348355E+00
  1.422929024535E+00  1.440004172830E+00  1.457284222904E+00  1.474771633579E+00
  1.492468893182E+00  1.510378519900E+00  1.528503062139E+00  1.546845098884E+00
  1.565407240071E+00  1.584192126952E+00  1.603202432475E+00  1.622440861665E+00
  1.641910152005E+00  1.661613073829E+00  1.681552430715E+00  1.701731059883E+00
  1.722151832602E+00  1.742817654593E+00  1.763731466448E+00  1.784896244046E+00
  1.806314998974E+00  1.827990778962E+00  1.849926668309E+00  1.872125788329E+00
  1.894591297789E+00  1.917326393363E+00  1.940334310083E+00  1.963618321804E+00
  1.987181741666E+00  2.011027922566E+00  2.035160257636E+00  2.059582180728E+00
  2.084297166897E+00  2.109308732900E+00  2.134620437694E+00  2.160235882947E+00
  2.186158713542E+00  2.212392618105E+00  2.238941329522E+00  2.265808625476E+00
  2.292998328982E+00  2.320514308930E+00  2.348360480637E+00  2.376540806404E+00
  2.405059296081E+00  2.433920007634E+00  2.463127047726E+00  2.492684572298E+00
  2.522596787166E+00  2.552867948612E+00  2.583502363995E+00  2.614504392363E+00
  2.645878445072E+00  2.677628986413E+00  2.709760534250E+00  2.742277660661E+00
  2.775184992588E+00  2.808487212499E+00  2.842189059049E+00  2.876295327758E+00
  2.910810871691E+00  2.945740602151E+00  2.981089489377E+00  3.016862563250E+00
  3.053064914009E+00  3.089701692977E+00  3.126778113293E+00  3.164299450652E+00
  3.202271044060E+00  3.240698296589E+00  3.279586676148E+00  3.318941716262E+00
  3.358769016857E+00  3.399074245059E+00  3.439863136000E+00  3.481141493632E+00
  3.522915191555E+00  3.565190173854E+00  3.607972455940E+00  3.651268125411E+00
  3.695083342916E+00  3.739424343031E+00  3.784297435148E+00  3.829709004370E+00
  3.875665512422E+00  3.922173498571E+00  3.969239580554E+00  4.016870455521E+00
  4.065072900987E+00  4.113853775799E+00  4.163220021108E+00  4.213178661361E+00
  4.263736805298E+00  4.314901646961E+00  4.366680466725E+00  4.419080632326E+00
  4.472109599914E+00  4.525774915112E+00  4.580084214094E+00  4.635045224663E+00
  4.690665767359E+00  4.746953756567E+00  4.803917201646E+00  4.861564208066E+00
  4.919902978563E+00  4.978941814305E+00  5.038689116077E+00  5.099153385470E+00
  5.160343226096E+00  5.222267344809E+00  5.284934552946E+00  5.348353767582E+00
  5.412534012793E+00  5.477484420946E+00  5.543214233998E+00  5.609732804806E+00
  5.677049598463E+00  5.745174193645E+00  5.814116283969E+00  5.883885679376E+00
  5.954492307529E+00  6.025946215219E+00  6.098257569802E+00  6.171436660639E+00
  6.245493900567E+00  6.320439827374E+00  6.396285105302E+00  6.473040526566E+00
  6.550717012885E+00  6.629325617039E+00  6.708877524444E+00  6.789384054737E+00
  6.870856663394E+00  6.953306943355E+00  7.036746626675E+00  7.121187586195E+00
  7.206641837229E+00  7.293121539276E+00  7.380638997747E+00  7.469206665720E+00
  7.558837145709E+00  7.649543191458E+00  7.741337709755E+00  7.834233762272E+00
  7.928244567419E+00  8.023383502228E+00  8.119664104255E+00  8.217100073506E+00
  8.315705274388E+00  8.415493737681E+00  8.516479662533E+00  8.618677418483E+00
  8.722101547505E+00  8.826766766075E+00  8.932687967268E+00  9.039880222875E+00
  9.148358785550E+00  9.258139090977E+00  9.369236760068E+00  9.481667601189E+00
  9.595447612403E+00  9.710592983752E+00  9.827120099557E+00  9.945045540752E+00
  1.006438608724E+01  1.018515872029E+01  1.030738062493E+01  1.043106919243E+01
  1.055624202274E+01  1.068291692701E+01  1.081111193014E+01  1.094084527330E+01
  1.107213541658E+01  1.120500104158E+01  1.133946105408E+01  1.147553458672E+01
  1.161324100177E+01  1.175259989379E+01  1.189363109251E+01  1.203635466562E+01
  1.218079092161E+01  1.232696041267E+01  1.247488393762E+01  1.262458254487E+01
  1.277607753541E+01  1.292939046584E+01  1.308454315143E+01  1.324155766924E+01
  1.340045636127E+01  1.356126183761E+01  1.372399697966E+01  1.388868494342E+01
  1.405534916274E+01  1.422401335269E+01  1.439470151292E+01  1.456743793108E+01
  1.474224718625E+01  1.491915415249E+01  1.509818400232E+01  1.527936221034E+01
  1.546271455687E+01  1.564826713155E+01  1.583604633713E+01  1.602607889317E+01
  1.621839183989E+01  1.641301254197E+01  1.660996869247E+01  1.680928831678E+01
  1.701099977659E+01  1.721513177390E+01  1.742171335519E+01  1.763077391545E+01
  1.784234320244E+01  1.805645132087E+01  1.827312873672E+01  1.849240628156E+01
  1.871431515694E+01  1.893888693882E+01  1.916615358209E+01  1.939614742507E+01
  1.962890119417E+01  1.986444800850E+01  2.010282138461E+01  2.034405524122E+01
  2.058818390411E+01  2.083524211096E+01  2.108526501630E+01  2.133828819649E+01
  2.159434765485E+01  2.185347982671E+01  2.211572158463E+01  2.238111024364E+01
  2.264968356657E+01  2.292147976937E+01  2.319653752660E+01  2.347489597692E+01
  2.375659472864E+01  2.404167386538E+01  2.433017395177E+01  2.462213603919E+01
  2.491760167166E+01  2.521661289172E+01  2.551921224642E+01  2.582544279338E+01
  2.613534810690E+01  2.644897228418E+01  2.676635995159E+01  2.708755627101E+01
  2.741260694626E+01  2.774155822962E+01  2.807445692837E+01  2.841135041151E+01
  2.875228661645E+01  2.909731405585E+01  2.944648182452E+01  2.979983960641E+01
  3.015743768169E+01  3.051932693387E+01  3.088555885708E+01  3.125618556336E+01
  3.163125979012E+01  3.201083490760E+01  3.239496492650E+01  3.278370450561E+01
  3.317710895968E+01  3.357523426720E+01  3.397813707840E+01  3.438587472334E+01
  3.479850522002E+01  3.521608728266E+01  3.563868033006E+01  3.606634449402E+01
  3.649914062795E+01  3.693713031548E+01  3.738037587927E+01  3.782894038982E+01
  3.828288767450E+01  3.874228232659E+01  3.920718971451E+01  3.967767599108E+01
  4.015380810298E+01  4.063565380021E+01  4.112328164581E+01  4.161676102556E+01
  4.211616215787E+01  4.262155610377E+01  4.313301477701E+01  4.365061095433E+01
  4.417441828579E+01
</grid-data>
</grid>
<valence-charge total-charge="11" is-unscreening-charge="yes"
 rescaled-to-z-pseudo="no">
<radfunc>
<data npts="457">
  8.746250653020E-01  8.761305655602E-01  8.806309418022E-01  8.881388918937E-01
  8.985770534478E-01  9.123013122976E-01  9.297913578856E-01  9.498171089649E-01
  9.723315207860E-01  9.985836324503E-01  1.028169989459E+00  1.060323102161E+00
  1.099174548223E+00  1.139741981871E+00  1.187585117599E+00  1.235351604670E+00
  1.290337193126E+00  1.342438521440E+00  1.400987430417E+00  1.466759190889E+00
  1.540615971038E+00  1.606162307583E+00  1.678030554821E+00  1.756802495061E+00
  1.843107246437E+00  1.937623667933E+00  2.041082505510E+00  2.125014898047E+00
  2.214768617834E+00  2.310712293219E+00  2.413232018014E+00  2.522731105538E+00
  2.639629586643E+00  2.764363397351E+00  2.897383192934E+00  3.039152715361E+00
  3.190146629968E+00  3.350847734882E+00  3.463615317830E+00  3.581058502573E+00
  3.703321343936E+00  3.830546492330E+00  3.962874306350E+00  4.100441848699E+00
  4.243381754514E+00  4.391820960557E+00  4.545879283181E+00  4.705667832477E+00
  4.871287249641E+00  5.042825754319E+00  5.220356988648E+00  5.403937644827E+00
  5.593604863545E+00  5.789373391336E+00  5.991232486218E+00  6.199142562698E+00
  6.413031569642E+00  6.632791097618E+00  6.858272216330E+00  7.089281047776E+00
  7.325574086902E+00  7.566853288993E+00  7.812760951953E+00  8.062874432159E+00
  8.316700744826E+00  8.573671113961E+00  8.833135553036E+00  8.963576415787E+00
  9.094357575539E+00  9.225372628461E+00  9.356509154474E+00  9.487648583475E+00
  9.618666071568E+00  9.749430388806E+00  9.879803820067E+00  1.000964208076E+01
  1.013879424918E+01  1.026710271743E+01  1.039440316278E+01  1.052052454176E+01
  1.064528910887E+01  1.076851246235E+01  1.089000361909E+01  1.100956512117E+01
  1.112699317630E+01  1.124207783450E+01  1.135460320346E+01  1.146434770488E+01
  1.157108437408E+01  1.167458120512E+01  1.177460154351E+01  1.187090452850E+01
  1.196324558672E+01  1.205137697884E+01  1.213504840050E+01  1.221400763856E+01
  1.228800128350E+01  1.235677549812E+01  1.242007684261E+01  1.247765315539E+01
  1.252925448856E+01  1.257463409643E+01  1.261354947492E+01  1.264576344878E+01
  1.267104530338E+01  1.268917195653E+01  1.269992916571E+01  1.270311276467E+01
  1.269852992331E+01  1.268600042348E+01  1.266535794297E+01  1.263645133906E+01
  1.259914592251E+01  1.255332471228E+01  1.249888966057E+01  1.243576283767E+01
  1.236388756534E+01  1.228322948784E+01  1.219377756882E+01  1.209554500317E+01
  1.198857003237E+01  1.187291665274E+01  1.174867520603E+01  1.161596284273E+01
  1.147492384908E+01  1.132572982952E+01  1.116857973755E+01  1.100369974901E+01
  1.083134297284E+01  1.065178899571E+01  1.046534325846E+01  1.027233626306E+01
  1.007312261068E+01  9.868079872428E+00  9.657607295459E+00  9.442124348707E+00
  9.222069113122E+00  8.997896522636E+00  8.770076462839E+00  8.539091735265E+00
  8.305435896007E+00  8.069610978156E+00  7.832125108417E+00  7.593490029095E+00
  7.354218537659E+00  7.114821857215E+00  6.875806952512E+00  6.637673807671E+00
  6.400912683534E+00  6.166001374548E+00  5.933402487253E+00  5.703560764762E+00
  5.476900484016E+00  5.253822954935E+00  5.034704152718E+00  4.819892516399E+00
  4.609706948054E+00  4.404435047640E+00  4.204331618260E+00  4.009617475291E+00
  3.820478590463E+00  3.637065598278E+00  3.459493687292E+00  3.287842892766E+00
  3.122158800365E+00  2.962454525270E+00  2.808716606979E+00  2.660913162069E+00
  2.518995973662E+00  2.382900927099E+00  2.252549727830E+00  2.127851159937E+00
  2.008702417847E+00  1.894990417610E+00  1.786593086203E+00  1.683380618884E+00
  1.585216694626E+00  1.491959639405E+00  1.403463527054E+00  1.319579207650E+00
  1.240155253912E+00  1.165038816951E+00  1.094076267114E+00  1.027113265006E+00
  9.639945447700E-01  9.045644198279E-01  8.486675501445E-01  7.961494371277E-01
  7.468569609687E-01  7.006388620779E-01  6.573461815133E-01  6.168326597393E-01
  5.789550944198E-01  5.435736581411E-01  5.105521770905E-01  4.797583718535E-01
  4.510640616244E-01  4.243453332383E-01  3.994826765490E-01  3.763610877817E-01
  3.548701426018E-01  3.349040407481E-01  3.163616241906E-01  2.991463708867E-01
  2.831663663230E-01  2.683342551314E-01  2.545671751536E-01  2.417866763733E-01
  2.299186271304E-01  2.188931099491E-01  2.086443091477E-01  1.991103921480E-01
  1.902333860700E-01  1.819590508267E-01  1.742367495466E-01  1.670193168082E-01
  1.602629249064E-01  1.539269482156E-01  1.479738256805E-01  1.423689215322E-01
  1.370803844759E-01  1.320790057709E-01  1.273380768039E-01  1.228332468897E-01
  1.185423821230E-01  1.144454261232E-01  1.105242634855E-01  1.067625866736E-01
  1.031457669862E-01  9.966073010999E-02  9.629583665204E-02  9.304076792904E-02
  8.988641719125E-02  8.682478636986E-02  8.384888836601E-02  8.095265484235E-02
  7.813084943334E-02  7.537898625756E-02  7.269325359025E-02  7.007044253721E-02
  6.750788053909E-02  6.500336952715E-02  6.255512854736E-02  6.016174066673E-02
  5.782210397575E-02  5.553538650074E-02  5.330098484184E-02  5.111848635377E-02
  4.898763468946E-02  4.690829852877E-02  4.488044331770E-02  4.290410584653E-02
  4.097937149804E-02  3.910635400068E-02  3.728517752462E-02  3.551596096202E-02
  3.379880423677E-02  3.213377649290E-02  3.052090601489E-02  2.896017173833E-02
  2.745149621458E-02  2.599473989903E-02  2.458969663987E-02  2.323609025173E-02
  2.193357206757E-02  2.068171937184E-02  1.948003462816E-02  1.832794542629E-02
  1.722480508348E-02  1.616989384709E-02  1.516242064588E-02  1.420152540324E-02
  1.328628178396E-02  1.241570045405E-02  1.158873277957E-02  1.080427495142E-02
  1.006117250956E-02  9.358225234010E-03  8.694192362940E-03  8.067798089712E-03
  7.477737283038E-03  6.922681367081E-03  6.401284292757E-03  5.912188527969E-03
  5.454030993230E-03  5.025448870452E-03  4.625085216220E-03  4.251594316584E-03
  3.903646727782E-03  3.579933955974E-03  3.279172738477E-03  3.000108898827E-03
  2.741520757634E-03  2.502222090535E-03  2.281064633114E-03  2.076940140348E-03
  1.888782014837E-03  1.715566523619E-03  1.556313627897E-03  1.410087453374E-03
  1.275996431343E-03  1.153193142127E-03  1.040873893161E-03  9.382780639464E-04
  8.446872494508E-04  7.594242323944E-04  6.818518132839E-04  6.113715252209E-04
  5.474222584187E-04  4.894788171448E-04  4.370504295075E-04  3.896792281941E-04
  3.469387179924E-04  3.084322437358E-04  2.737914702349E-04  2.426748838325E-04
  2.147663234534E-04  1.897735474414E-04  1.674268410828E-04  1.474776685040E-04
  1.296973716134E-04  1.138759178935E-04  9.982069816074E-05  8.735537484326E-05
  7.631878089417E-05  6.656386911701E-05  5.795671142673E-05  5.037554737857E-05
  4.370988115592E-05  3.785962610230E-05  3.273429580036E-05  2.825224063442E-05
  2.433992871481E-05  2.093126998885E-05  1.796698231131E-05  1.539399819524E-05
  1.316491091294E-05  1.123745856610E-05  9.574044695584E-06  8.141293956469E-06
  6.909641343846E-06  5.852953421256E-06  4.948179977766E-06  4.175034522264E-06
  3.515702015477E-06  2.954572241707E-06  2.477997233387E-06  2.074071182132E-06
  1.732431299409E-06  1.444078127667E-06  1.201213848000E-06  9.970971820244E-07
  8.259135429289E-07  6.826591522784E-07  5.630379043175E-07  4.633698271017E-07
  3.805100588830E-07  3.117773279042E-07  2.548909933129E-07  2.079157735801E-07
  1.692133559868E-07  1.374001458913E-07  1.113104771840E-07  8.996466523000E-08
  7.254134042341E-08  5.835355405639E-08  4.682819840800E-08  3.748832974479E-08
  2.993802627489E-08  2.384945306902E-08  1.895184262517E-08  1.502213322684E-08
  1.187703766086E-08  9.366342376651E-09  7.367261951562E-09  5.779695954154E-09
  4.522255148416E-09  3.528941641630E-09  2.746383226877E-09  2.131535965183E-09
  1.649781182888E-09  1.273354042091E-09  9.800483848871E-10  7.237828041508E-10
  5.176567010493E-10  3.941051774864E-10  2.991384692906E-10  2.263640127117E-10
  1.707664025032E-10  1.284227941557E-10  9.627442311404E-11  7.194375737684E-11
  5.358863733731E-11  3.978629652180E-11  2.944144241449E-11  2.171364584265E-11
  1.596017362969E-11  1.169113107489E-11  8.534382985665E-12  6.208215639596E-12
  4.500105258316E-12  3.250286689010E-12  2.339082003873E-12  1.677163589862E-12
  1.198099192842E-12  8.526649724280E-13  6.045232962490E-13  4.269500389944E-13
  3.003659100862E-13  2.104813924509E-13  1.469081595061E-13  1.021237302163E-13
  7.070255394363E-14  4.874724643651E-14  3.346957822976E-14  2.288304918404E-14
  1.557826623769E-14  1.055950886149E-14  7.126318126642E-15  4.788073670928E-15
  3.202635650889E-15  2.132465488969E-15  1.413385547394E-15  9.324370829631E-16
  6.122580310448E-16  4.001114839945E-16  2.602161976086E-16  1.684105632775E-16
  1.084577586598E-16  6.949963288770E-17  4.431073617059E-17  2.810694570298E-17
  1.773658170446E-17  1.113398917820E-17  6.952307341692E-18  4.317941875322E-18
  2.667265894913E-18  1.638585901256E-18  1.001052480571E-18  6.081352965043E-19
  3.673414694139E-19  2.206156850825E-19  1.317253705248E-19  7.818773974271E-20
  4.613316788526E-20  2.705590798820E-20  1.577079584026E-20  9.135994317171E-21
  5.259402372875E-21  3.008586977076E-21  1.710019731199E-21  9.656467200911E-22
  5.417267475070E-22  0.000000000000E+00  0.000000000000E+00  0.000000000000E+00
  0.000000000000E+00
</data>
</radfunc>
</valence-charge>
<pseudocore-charge matching-radius="0.574730556591"
 number-of-continuous-derivatives="4">
<annotation model-charge-form="Teter function with specified parameters" />
<radfunc>
<data npts="290">
  6.370436017642E+01  6.369443804185E+01  6.366478253839E+01  6.361532395571E+01
  6.354659484227E+01  6.345628573003E+01  6.334129055539E+01  6.320975229638E+01
  6.306203151581E+01  6.289000615892E+01  6.269641436805E+01  6.248636615616E+01
  6.223302896399E+01  6.196904954906E+01  6.165844236382E+01  6.134910427942E+01
  6.099396648054E+01  6.065839412119E+01  6.028237850703E+01  5.986133941900E+01
  5.939025675010E+01  5.897369225469E+01  5.851857707725E+01  5.802168962645E+01
  5.747961161063E+01  5.688873213795E+01  5.624525639250E+01  5.572575426249E+01
  5.517271130043E+01  5.458435856669E+01  5.395889508143E+01  5.329449812162E+01
  5.258933566544E+01  5.184158123759E+01  5.104943141869E+01  5.021112628747E+01
  4.932497306328E+01  4.838937320704E+01  4.773743579811E+01  4.706246524331E+01
  4.636409933352E+01  4.564201772370E+01  4.489594767188E+01  4.412567014160E+01
  4.333102626131E+01  4.251192412881E+01  4.166834594202E+01  4.080035543005E+01
  3.990810554988E+01  3.899184640435E+01  3.805193332630E+01  3.708883506179E+01
  3.610314197229E+01  3.509557416139E+01  3.406698941636E+01  3.301839083870E+01
  3.195093402090E+01  3.086593360911E+01  2.976486907377E+01  2.864938949293E+01
  2.752131713619E+01  2.638264962181E+01  2.523556040636E+01  2.408239735578E+01
  2.292567914019E+01  2.176808919334E+01  2.061246698217E+01  2.003632096983E+01
  1.946179634391E+01  1.888928621152E+01  1.831919066912E+01  1.775191615398E+01
  1.718787474004E+01  1.662748337754E+01  1.607116307609E+01  1.551933803104E+01
  1.497243469357E+01  1.443088078489E+01  1.389510425576E+01  1.336553219270E+01
  1.284258967267E+01  1.232669856858E+01  1.181827630856E+01  1.131773459216E+01
  1.082547806755E+01  1.034190297394E+01  9.867395754530E+00  9.402331645368E+00
  8.947073246438E+00  8.501969081794E+00  8.067352156134E+00  7.643538515820E+00
  7.230825822930E+00  6.829491951435E+00  6.439793615172E+00  6.061965037674E+00
  5.696216674410E+00  5.342733998288E+00  5.001676359594E+00  4.673175931707E+00
  4.357336754068E+00  4.054233883836E+00  3.763912667588E+00  3.486388144131E+00
  3.221644589148E+00  2.969635211826E+00  2.730282012973E+00  2.503475813235E+00
  2.289076459058E+00  2.086913212804E+00  1.896785332136E+00  1.718462842200E+00
  1.551687502503E+00  1.396173968521E+00  1.251611146084E+00  1.117663734490E+00
  9.939739520753E-01  8.801634356731E-01  7.758353030221E-01  6.805763648172E-01
  5.939594707171E-01  5.155459713011E-01  4.448882757423E-01  3.815324828729E-01
  3.250210614146E-01  2.748955534806E-01  2.306992740699E-01  1.919799782276E-01
  1.582924668722E-01  1.292011020455E-01  1.042822025536E-01  8.312629167494E-02
  6.534016983533E-02  5.054878690696E-02  3.839689107739E-02  2.855043405293E-02
  2.069771568009E-02  1.455025485578E-02  9.843377797683E-03  6.336519293698E-03
  3.813237361683E-03  2.080946730772E-03  9.703815945972E-04  3.348030648038E-04
  4.897154254765E-05  7.908693660632E-06  1.254777265933E-04  3.328141013541E-04
  5.766415211246E-04  8.175099681368E-04  1.027993552421E-03  1.190885980399E-03
  1.297430482388E-03  1.345619058493E-03  1.338592940768E-03  1.283172292778E-03
  1.188538480069E-03  1.065086887054E-03  9.234624012556E-04  7.737835366783E-04
  6.250549478691E-04  4.847620312636E-04  3.586356599664E-04  2.505700828714E-04
  1.626728495139E-04  9.542247656972E-05  4.790758543517E-05  1.812049469610E-05
  3.278767709890E-06  1.499499867469E-07  5.357573355114E-06  1.565028073530E-05
  2.812040770693E-05  4.036327183742E-05  5.057346624756E-05  5.757931846941E-05
  6.082105835426E-05  6.028187072006E-05  5.638367312664E-05  4.986101028606E-05
  4.162683117009E-05  3.264314052232E-05  2.380771162876E-05  1.586541331310E-05
  9.349510226957E-06  4.554855687508E-06  1.541541806863E-06  1.646198444372E-07
  1.232269848886E-07  1.021053458081E-06  2.429660755290E-06  3.946715305682E-06
  5.242622021943E-06  6.091121696258E-06  6.381875157405E-06  6.115575123061E-06
  5.384382943438E-06  4.342201591306E-06  3.170265765616E-06  2.043658148446E-06
  1.103671061320E-06  4.395658407776E-07  8.147635627093E-08  0.000000000000E+00
  0.000000000000E+00  0.000000000000E+00  0.000000000000E+00  0.000000000000E+00
  0.000000000000E+00  0.000000000000E+00  0.000000000000E+00  0.000000000000E+00
  0.000000000000E+00  0.000000000000E+00  0.000000000000E+00  0.000000000000E+00
  0.000000000000E+00  0.000000000000E+00  0.000000000000E+00  0.000000000000E+00
  0.000000000000E+00  0.000000000000E+00  0.000000000000E+00  0.000000000000E+00
  0.000000000000E+00  0.000000000000E+00  0.000000000000E+00  0.000000000000E+00
  0.000000000000E+00  0.000000000000E+00  0.000000000000E+00  0.000000000000E+00
  0.000000000000E+00  0.000000000000E+00  0.000000000000E+00  0.000000000000E+00
  0.000000000000E+00  0.000000000000E+00  0.000000000000E+00  0.000000000000E+00
  0.000000000000E+00  0.000000000000E+00  0.000000000000E+00  0.000000000000E+00
  0.000000000000E+00  0.000000000000E+00  0.000000000000E+00  0.000000000000E+00
  0.000000000000E+00  0.000000000000E+00  0.000000000000E+00  0.000000000000E+00
  0.000000000000E+00  0.000000000000E+00  0.000000000000E+00  0.000000000000E+00
  0.000000000000E+00  0.000000000000E+00  0.000000000000E+00  0.000000000000E+00
  0.000000000000E+00  0.000000000000E+00  0.000000000000E+00  0.000000000000E+00
  0.000000000000E+00  0.000000000000E+00  0.000000000000E+00  0.000000000000E+00
  0.000000000000E+00  0.000000000000E+00  0.000000000000E+00  0.000000000000E+00
  0.000000000000E+00  0.000000000000E+00  0.000000000000E+00  0.000000000000E+00
  0.000000000000E+00  0.000000000000E+00  0.000000000000E+00  0.000000000000E+00
  0.000000000000E+00  0.000000000000E+00  0.000000000000E+00  0.000000000000E+00
  0.000000000000E+00  0.000000000000E+00  0.000000000000E+00  0.000000000000E+00
  0.000000000000E+00  0.000000000000E+00
</data>
</radfunc>
</pseudocore-charge>
<semilocal-potentials set="lj">
<slps n="3" l="s" j="0.5" rc="1.35662928595" eref="-2.01636832488">
<radfunc>
<data npts="290">
  7.310823393432E+00  7.305316566273E+00  7.288868822717E+00  7.261466383088E+00
  7.223445727639E+00  7.173590287235E+00  7.110275762355E+00  7.038083852119E+00
  6.957302771008E+00  6.863618045680E+00  6.758683229218E+00  6.645416644029E+00
  6.509614274415E+00  6.369037225246E+00  6.204831665031E+00  6.042573684722E+00
  5.857842970608E+00  5.684792619815E+00  5.492597059841E+00  5.279502373657E+00
  5.043683583925E+00  4.837408016389E+00  4.614417113770E+00  4.373740516596E+00
  4.114423171676E+00  3.835541146393E+00  3.536219817719E+00  3.297828153607E+00
  3.047178366251E+00  2.783999116171E+00  2.508060306509E+00  2.219179474124E+00
  1.917228348038E+00  1.602139478913E+00  1.273912826937E+00  9.326221802729E-01
  5.784212630427E-01  2.115493817778E-01 -3.991223792429E-02 -2.967396939819E-01
 -5.587927415722E-01 -8.259115465188E-01 -1.097916410352E+00 -1.374607599011E+00
 -1.655765280415E+00 -1.941149574599E+00 -2.230500718385E+00 -2.523539344565E+00
 -2.819966873334E+00 -3.119466011334E+00 -3.421701351049E+00 -3.726320060573E+00
 -4.032952650988E+00 -4.341213805713E+00 -4.650703253477E+00 -4.961006663818E+00
 -5.271696541679E+00 -5.582333095493E+00 -5.892465051572E+00 -6.201630386558E+00
 -6.509356949479E+00 -6.815162945649E+00 -7.118557256767E+00 -7.419039574997E+00
 -7.716100334421E+00 -8.009220431194E+00 -8.297870734770E+00 -8.440351455071E+00
 -8.581511407360E+00 -8.721281301608E+00 -8.859591068345E+00 -8.996369828705E+00
 -9.131545865283E+00 -9.265046594894E+00 -9.396798544500E+00 -9.526727331749E+00
 -9.654757651729E+00 -9.780813271753E+00 -9.904817036128E+00 -1.002669088301E+01
 -1.014635587558E+01 -1.026373224973E+01 -1.037873948064E+01 -1.049129637018E+01
 -1.060132115716E+01 -1.070873165189E+01 -1.081344539589E+01 -1.091537984721E+01
 -1.101445259039E+01 -1.111058156960E+01 -1.120368534180E+01 -1.129368334580E+01
 -1.138049618165E+01 -1.146404589369E+01 -1.154425624952E+01 -1.162105300688E+01
 -1.169436415996E+01 -1.176412015768E+01 -1.183025408750E+01 -1.189270182056E+01
 -1.195140211666E+01 -1.200629669058E+01 -1.205733024494E+01 -1.210445047794E+01
 -1.214760807711E+01 -1.218675671222E+01 -1.222185304125E+01 -1.225285674264E+01
 -1.227973058540E+01 -1.230244054526E+01 -1.232095597120E+01 -1.233524980217E+01
 -1.234529882910E+01 -1.235108399353E+01 -1.235259071028E+01 -1.234980919943E+01
 -1.234273481156E+01 -1.233136832920E+01 -1.231571622852E+01 -1.229579088555E+01
 -1.227161071325E+01 -1.224320021682E+01 -1.221058995690E+01 -1.217381641215E+01
 -1.213292173494E+01 -1.208795339669E+01 -1.203896372258E+01 -1.198600931926E+01
 -1.192915040413E+01 -1.186845005012E+01 -1.180397336643E+01 -1.173578664269E+01
 -1.166395649119E+01 -1.158854902925E+01 -1.150962915088E+01 -1.142725994311E+01
 -1.134150230734E+01 -1.125241484978E+01 -1.116005410656E+01 -1.106447516835E+01
 -1.096573276595E+01 -1.086388287187E+01 -1.075898486326E+01 -1.065110427800E+01
 -1.054031617838E+01 -1.042670911513E+01 -1.031038965821E+01 -1.019148743036E+01
 -1.007016054414E+01 -9.946601304372E+00 -9.821041995702E+00 -9.693760531436E+00
 -9.565085695632E+00 -9.435401669380E+00 -9.305151496423E+00 -9.174839117056E+00