<?xml version="1.0" encoding="UTF-8" ?>
<psml version="1.1" energy_unit="hartree" length_unit="bohr"
 uuid="0de3f7b0-53b5-11e8-7152-d66b4ed644c9"
 xmlns="http://esl.cecam.org/PSML/ns/1.1">
<provenance creator="ONCVPSP-3.3.0+psml-3.3.0-73 (fully-relativistic)"
 date="2018-05-09">
<annotation action="semilocal-pseudopotential-generation"
 action-cont="projectors-generation" />
<input-file name="oncvpsp-input">
<![CDATA[# atsym z nc nv iexc psfile
Ir 77 10 4 -116133 upf
# n l f
1 0 2.0
2 0 2.0
2 1 6.0
3 0 2.0
3 1 6.0
3 2 10.0
4 0 2.0
4 1 6.0
4 2 10.0
4 3 14.0
5 0 2.0
5 1 6.0
5 2 7.0
6 0 2.0
# lmax
3
# l rc ep ncon nbas qcut
0 1.6 0.0 4 8 8.1
1 1.6 0.0 4 8 8.1
2 1.5 0.0 4 8 8.4
3 2.25 0.5 4 8 6.8
# lloc lpopt rc5 dvloc0
4 5 1.5 0.0
# l nproj debl
0 2 1.2
1 2 2.5
2 2 1.0
3 2 3.0
# icmod fcfact rcfact
3 5.0 1.37
# epsh1 epsh2 depsh
-14.0 12.0 0.02
# rlmax drl
5.0 0.01
 0
]]>
</input-file>
</provenance>
<pseudo-atom-spec atomic-label="Ir" atomic-number="77" z-pseudo="17"
 flavor="Hamann&apos;s oncvpsp" relativity="dirac" spin-dft="no"
 core-corrections="yes">
<annotation pseudo-energy="-106.336409163" />
<exchange-correlation>
<annotation oncvpsp-xc-code="-116133" oncvpsp-xc-type="libxc-interface" />
<libxc-info number-of-functionals="2">
<functional name="Perdew, Burke &amp; Ernzerhof SOL (GGA)" type="exchange"
 id="116" />
<functional name="Perdew, Burke &amp; Ernzerhof SOL (GGA)" type="correlation"
 id="133" />
</libxc-info>
</exchange-correlation>
<valence-configuration total-valence-charge="17">
<shell n="5" l="s" occupation="2" />
<shell n="5" l="p" occupation="6" />
<shell n="5" l="d" occupation="7" />
<shell n="6" l="s" occupation="2" />
</valence-configuration>
</pseudo-atom-spec>
<grid npts="457">
<annotation type="sampled from oncvpsp log grid"
 recipe="r(i:1..N) = r1*exp(a*(i-1)) + r=0; resampled"
 recipe-cont="r1: scale; a: step" scale="0.649350649351E-05"
 step="0.119285708653E-01" delta="0.500000000000E-02" rmax="44.2155744394" />
<grid-data>
  0.000000000000E+00  5.048998669752E-03  1.008497861164E-02  1.512907607261E-02
  2.014395333605E-02  2.526820806223E-02  3.058177187380E-02  3.571159986911E-02
  4.071879753945E-02  4.587753439355E-02  5.107691777807E-02  5.619126148361E-02
  6.181770561879E-02  6.720111355653E-02  7.305333671047E-02  7.847351971603E-02
  8.429585250881E-02  8.947645508006E-02  9.497544393250E-02  1.008123862541E-01
  1.070080517809E-01  1.122376350817E-01  1.177227929962E-01  1.234760156942E-01
  1.295104037517E-01  1.358396979821E-01  1.424783107250E-01  1.476693267439E-01
  1.530494708284E-01  1.586256336191E-01  1.644049568082E-01  1.703948422864E-01
  1.766029616229E-01  1.830372658906E-01  1.897059958500E-01  1.966176925027E-01
  2.037812080314E-01  2.112057171363E-01  2.163050679708E-01  2.215275375319E-01
  2.268760983981E-01  2.323537949178E-01  2.379637449423E-01  2.437091416002E-01
  2.495932551150E-01  2.556194346665E-01  2.617911102971E-01  2.681117948641E-01
  2.745850860393E-01  2.812146683566E-01  2.880043153094E-01  2.949578914983E-01
  3.020793548306E-01  3.093727587736E-01  3.168422546615E-01  3.244920940580E-01
  3.323266311769E-01  3.403503253601E-01  3.485677436156E-01  3.569835632174E-01
  3.656025743677E-01  3.744296829233E-01  3.834699131878E-01  3.927284107718E-01
  4.022104455215E-01  4.119214145181E-01  4.218668451502E-01  4.269292472921E-01
  4.320523982596E-01  4.372370270387E-01  4.424838713631E-01  4.477936778195E-01
  4.531672019533E-01  4.586052083768E-01  4.641084708773E-01  4.696777725278E-01
  4.753139057981E-01  4.810176726677E-01  4.867898847397E-01  4.926313633566E-01
  4.985429397169E-01  5.045254549935E-01  5.105797604534E-01  5.167067175789E-01
  5.229071981898E-01  5.291820845681E-01  5.355322695829E-01  5.419586568179E-01
  5.484621606997E-01  5.550437066281E-01  5.617042311076E-01  5.684446818809E-01
  5.752660180635E-01  5.821692102803E-01  5.891552408036E-01  5.962251036933E-01
  6.033798049376E-01  6.106203625968E-01  6.179478069480E-01  6.253631806314E-01
  6.328675387990E-01  6.404619492646E-01  6.481474926557E-01  6.559252625676E-01
  6.637963657184E-01  6.717619221070E-01  6.798230651723E-01  6.879809419544E-01
  6.962367132578E-01  7.045915538169E-01  7.130466524627E-01  7.216032122923E-01
  7.302624508398E-01  7.390256002499E-01  7.478939074529E-01  7.568686343423E-01
  7.659510579544E-01  7.751424706499E-01  7.844441802977E-01  7.938575104612E-01
  8.033838005868E-01  8.130244061938E-01  8.227806990681E-01  8.326540674569E-01
  8.426459162664E-01  8.527576672616E-01  8.629907592688E-01  8.733466483800E-01
  8.838268081606E-01  8.944327298585E-01  9.051659226168E-01  9.160279136882E-01
  9.270202486524E-01  9.381444916363E-01  9.494022255359E-01  9.607950522423E-01
  9.723245928692E-01  9.839924879837E-01  9.958003978395E-01  1.007750002614E+00
  1.019843002645E+00  1.032081118677E+00  1.044466092101E+00  1.056999685206E+00
  1.069683681428E+00  1.082519885606E+00  1.095510124233E+00  1.108656245724E+00
  1.121960120672E+00  1.135423642120E+00  1.149048725826E+00  1.162837310536E+00
  1.176791358262E+00  1.190912854561E+00  1.205203808816E+00  1.219666254522E+00
  1.234302249576E+00  1.249113876571E+00  1.264103243090E+00  1.279272482007E+00
  1.294623751791E+00  1.310159236813E+00  1.325881147654E+00  1.341791721426E+00
  1.357893222083E+00  1.374187940748E+00  1.390678196037E+00  1.407366334390E+00
  1.424254730402E+00  1.441345787167E+00  1.458641936613E+00  1.476145639853E+00
  1.493859387531E+00  1.511785700181E+00  1.529927128583E+00  1.548286254126E+00
  1.566865689176E+00  1.585668077446E+00  1.604696094375E+00  1.623952447508E+00
  1.643439876878E+00  1.663161155400E+00  1.683119089265E+00  1.703316518336E+00
  1.723756316556E+00  1.744441392355E+00  1.765374689063E+00  1.786559185332E+00
  1.807997895556E+00  1.829693870303E+00  1.851650196746E+00  1.873869999107E+00
  1.896356439097E+00  1.919112716366E+00  1.942142068962E+00  1.965447773790E+00
  1.989033147075E+00  2.012901544840E+00  2.037056363378E+00  2.061501039739E+00
  2.086239052216E+00  2.111273920842E+00  2.136609207892E+00  2.162248518387E+00
  2.188195500608E+00  2.214453846615E+00  2.241027292774E+00  2.267919620288E+00
  2.295134655731E+00  2.322676271600E+00  2.350548386859E+00  2.378754967501E+00
  2.407300027111E+00  2.436187627437E+00  2.465421878966E+00  2.495006941514E+00
  2.524947024812E+00  2.555246389110E+00  2.585909345779E+00  2.616940257928E+00
  2.648343541023E+00  2.680123663516E+00  2.712285147478E+00  2.744832569248E+00
  2.777770560079E+00  2.811103806799E+00  2.844837052481E+00  2.878975097111E+00
  2.913522798276E+00  2.948485071855E+00  2.983866892718E+00  3.019673295430E+00
  3.055909374976E+00  3.092580287475E+00  3.129691250925E+00  3.167247545936E+00
  3.205254516487E+00  3.243717570685E+00  3.282642181533E+00  3.322033887712E+00
  3.361898294364E+00  3.402241073897E+00  3.443067966783E+00  3.484384782385E+00
  3.526197399773E+00  3.568511768571E+00  3.611333909794E+00  3.654669916711E+00
  3.698525955712E+00  3.742908267180E+00  3.787823166386E+00  3.833277044383E+00
  3.879276368916E+00  3.925827685342E+00  3.972937617567E+00  4.020612868977E+00
  4.068860223405E+00  4.117686546086E+00  4.167098784639E+00  4.217103970055E+00
  4.267709217695E+00  4.318921728308E+00  4.370748789047E+00  4.423197774516E+00
  4.476276147810E+00  4.529991461584E+00  4.584351359123E+00  4.639363575432E+00
  4.695035938338E+00  4.751376369598E+00  4.808392886033E+00  4.866093600665E+00
  4.924486723873E+00  4.983580564560E+00  5.043383531334E+00  5.103904133710E+00
  5.165150983315E+00  5.227132795115E+00  5.289858388656E+00  5.353336689320E+00
  5.417576729592E+00  5.482587650347E+00  5.548378702151E+00  5.614959246577E+00
  5.682338757536E+00  5.750526822626E+00  5.819533144498E+00  5.889367542232E+00
  5.960039952738E+00  6.031560432171E+00  6.103939157357E+00  6.177186427246E+00
  6.251312664373E+00  6.326328416345E+00  6.402244357341E+00  6.479071289629E+00
  6.556820145105E+00  6.635501986846E+00  6.715128010688E+00  6.795709546817E+00
  6.877258061378E+00  6.959785158115E+00  7.043302580012E+00  7.127822210972E+00
  7.213356077504E+00  7.299916350434E+00  7.387515346639E+00  7.476165530799E+00
  7.565879517169E+00  7.656670071375E+00  7.748550112231E+00  7.841532713578E+00
  7.935631106141E+00  8.030858679414E+00  8.127228983567E+00  8.224755731370E+00
  8.323452800147E+00  8.423334233748E+00  8.524414244553E+00  8.626707215488E+00
  8.730227702074E+00  8.834990434499E+00  8.941010319713E+00  9.048302443549E+00
  9.156882072872E+00  9.266764657746E+00  9.377965833639E+00  9.490501423643E+00
  9.604387440727E+00  9.719640090015E+00  9.836275771096E+00  9.954311080349E+00
  1.007376281331E+01  1.019464796707E+01  1.031698374268E+01  1.044078754759E+01
  1.056607699816E+01  1.069286992214E+01  1.082118436120E+01  1.095103857354E+01
  1.108245103642E+01  1.121544044886E+01  1.135002573424E+01  1.148622604306E+01
  1.162406075557E+01  1.176354948464E+01  1.190471207845E+01  1.204756862340E+01
  1.219213944688E+01  1.233844512024E+01  1.248650646168E+01  1.263634453922E+01
  1.278798067369E+01  1.294143644178E+01  1.309673367908E+01  1.325389448323E+01
  1.341294121703E+01  1.357389651163E+01  1.373678326977E+01  1.390162466901E+01
  1.406844416504E+01  1.423726549502E+01  1.440811268096E+01  1.458101003313E+01
  1.475598215353E+01  1.493305393937E+01  1.511225058664E+01  1.529359759368E+01
  1.547712076480E+01  1.566284621398E+01  1.585080036855E+01  1.604100997297E+01
  1.623350209265E+01  1.642830411776E+01  1.662544376717E+01  1.682494909238E+01
  1.702684848149E+01  1.723117066327E+01  1.743794471122E+01  1.764720004776E+01
  1.785896644833E+01  1.807327404571E+01  1.829015333426E+01  1.850963517427E+01
  1.873175079636E+01  1.895653180592E+01  1.918401018759E+01  1.941421830984E+01
  1.964718892956E+01  1.988295519671E+01  2.012155065907E+01  2.036300926698E+01
  2.060736537819E+01  2.085465376273E+01  2.110490960788E+01  2.135816852317E+01
  2.161446654545E+01  2.187384014400E+01  2.213632622572E+01  2.240196214043E+01
  2.267078568612E+01  2.294283511435E+01  2.321814913572E+01  2.349676692535E+01
  2.377872812846E+01  2.406407286600E+01  2.435284174039E+01  2.464507584128E+01
  2.494081675137E+01  2.524010655239E+01  2.554298783102E+01  2.584950368499E+01
  2.615969772921E+01  2.647361410196E+01  2.679129747118E+01  2.711279304084E+01
  2.743814655733E+01  2.776740431601E+01  2.810061316781E+01  2.843782052582E+01
  2.877907437213E+01  2.912442326459E+01  2.947391634377E+01  2.982760333990E+01
  3.018553457997E+01  3.054776099493E+01  3.091433412687E+01  3.128530613640E+01
  3.166072981003E+01  3.204065856775E+01  3.242514647057E+01  3.281424822821E+01
  3.320801920695E+01  3.360651543743E+01  3.400979362268E+01  3.441791114616E+01
  3.483092607991E+01  3.524889719287E+01  3.567188395918E+01  3.609994656669E+01
  3.653314592549E+01  3.697154367660E+01  3.741520220072E+01  3.786418462713E+01
  3.831855484265E+01  3.877837750076E+01  3.924371803077E+01  3.971464264714E+01
  4.019121835891E+01  4.067351297922E+01  4.116159513497E+01  4.165553427659E+01
  4.215540068790E+01  4.266126549616E+01  4.317320068211E+01  4.369127909030E+01
  4.421557443938E+01
</grid-data>
</grid>
<valence-charge total-charge="17" is-unscreening-charge="yes"
 rescaled-to-z-pseudo="no">
<radfunc>
<data npts="457">
  2.839559031867E+00  2.840801423347E+00  2.844515496013E+00  2.850712369791E+00
  2.859329243565E+00  2.870661461645E+00  2.885107429196E+00  2.901653713317E+00
  2.920263838239E+00  2.941973650306E+00  2.966453919335E+00  2.993073765474E+00
  3.025261223591E+00  3.058896094518E+00  3.098597238041E+00  3.138271504965E+00
  3.183987461103E+00  3.227350574192E+00  3.276132566616E+00  3.330999257155E+00
  3.392695016585E+00  3.447523992300E+00  3.507722981829E+00  3.573803501190E+00
  3.646322482328E+00  3.725885510186E+00  3.813150081900E+00  3.884079175077E+00
  3.960062029692E+00  4.041439734285E+00  4.128573093635E+00  4.221843153075E+00
  4.321651602414E+00  4.428421023616E+00  4.542594939389E+00  4.664637611664E+00
  4.795033529493E+00  4.934286515001E+00  5.032299422714E+00  5.134639049410E+00
  5.241466920454E+00  5.352947027936E+00  5.469245364238E+00  5.590529371502E+00
  5.716967297073E+00  5.848727444163E+00  5.985977306013E+00  6.128882570908E+00
  6.277605984430E+00  6.432306054363E+00  6.593135582711E+00  6.760240008403E+00
  6.933755543395E+00  7.113807084196E+00  7.300505880248E+00  7.493946940262E+00
  7.694206157556E+00  7.901337135695E+00  8.115367696537E+00  8.336296054042E+00
  8.564086639233E+00  8.798665564495E+00  9.039915719197E+00  9.287671493600E+00
  9.541713134318E+00  9.801760742463E+00  1.006746793530E+01  1.020231582309E+01
  1.033841520391E+01  1.047570108093E+01  1.061410301322E+01  1.075354489055E+01
  1.089394470730E+01  1.103521433600E+01  1.117725930170E+01  1.131997855808E+01
  1.146326426654E+01  1.160700157941E+01  1.175106842893E+01  1.189533532318E+01
  1.203966515088E+01  1.218391299673E+01  1.232792596919E+01  1.247154304279E+01
  1.261459491716E+01  1.275690389511E+01  1.289828378229E+01  1.303853981094E+01
  1.317746859067E+01  1.331485808898E+01  1.345048764463E+01  1.358412801706E+01
  1.371554147488E+01  1.384448192700E+01  1.397069509965E+01  1.409391876269E+01
  1.421388300882E+01  1.433031058896E+01  1.444291730734E+01  1.455141247955E+01
  1.465549945677E+01  1.475487621921E+01  1.484923604155E+01  1.493826823299E+01
  1.502165895400E+01  1.509909211159E+01  1.517025033449E+01  1.523481602896E+01
  1.529247251542E+01  1.534290524535E+01  1.538580309724E+01  1.542085974940E+01
  1.544777512665E+01  1.546625691681E+01  1.547602215197E+01  1.547679884834E+01
  1.546832769733E+01  1.545036379943E+01  1.542267843105E+01  1.538506083334E+01
  1.533732001104E+01  1.527928652771E+01  1.521081428305E+01  1.513178225679E+01
  1.504209620260E+01  1.494169027476E+01  1.483052856971E+01  1.470860656401E+01
  1.457595243009E+01  1.443262821113E+01  1.427873083658E+01  1.411439296046E+01
  1.393978360536E+01  1.375510859605E+01  1.356061076835E+01  1.335656994015E+01
  1.314330263404E+01  1.292116154274E+01  1.269053473141E+01  1.245184457356E+01
  1.220554641985E+01  1.195212700248E+01  1.169210258050E+01  1.142601683452E+01
  1.115443852212E+01  1.087795890797E+01  1.059718898540E+01  1.031275650798E+01
  1.002530285213E+01  9.735479733011E+00  9.443945797459E+00  9.151363118433E+00
  8.858393616212E+00  8.565695431786E+00  8.273919277962E+00  7.983704793643E+00
  7.695676926559E+00  7.410442369569E+00  7.128586075606E+00  6.850667876435E+00
  6.577219230718E+00  6.308740127492E+00  6.045696171953E+00  5.788515881532E+00
  5.537588221350E+00  5.293260409321E+00  5.055836022110E+00  4.825573433750E+00
  4.602684618688E+00  4.387334350202E+00  4.179639823262E+00  3.979670727821E+00
  3.787449794112E+00  3.602953825766E+00  3.426115786819E+00  3.256829675810E+00
  3.094957144704E+00  2.940331328158E+00  2.792759576140E+00  2.652028045189E+00
  2.517909423486E+00  2.390172285042E+00  2.268582605714E+00  2.152905284098E+00
  2.042905415352E+00  1.938349471194E+00  1.839006346608E+00  1.744648286105E+00
  1.655051694293E+00  1.569997836721E+00  1.489273437226E+00  1.412671178229E+00
  1.339990110551E+00  1.271035979336E+00  1.205621472751E+00  1.143566399796E+00
  1.084697803971E+00  1.028850018732E+00  9.758646707452E-01  9.255906370772E-01
  8.778839614508E-01  8.326077350099E-01  7.896319464916E-01  7.488333064361E-01
  7.100950497482E-01  6.733067206062E-01  6.383639433935E-01  6.051681830185E-01
  5.736264976734E-01  5.436512867902E-01  5.151600366584E-01  4.880750658932E-01
  4.623232726811E-01  4.378358854774E-01  4.145482185984E-01  3.923994339304E-01
  3.713323097751E-01  3.512930176643E-01  3.322309078031E-01  3.140983036468E-01
  2.968503059733E-01  2.804446066888E-01  2.648413124872E-01  2.500027783901E-01
  2.358934511011E-01  2.224797220376E-01  2.097297898362E-01  1.976135320741E-01
  1.861023859055E-01  1.751692372743E-01  1.647883183360E-01  1.549351127022E-01
  1.455862681041E-01  1.367195160641E-01  1.283135981581E-01  1.203481984547E-01
  1.128038817196E-01  1.056620369817E-01  9.890482606886E-02  9.251513673420E-02
  8.647654000996E-02  8.077325144225E-02  7.539009587970E-02  7.031247550830E-02
  6.552634084519E-02  6.101816442463E-02  5.677491692438E-02  5.278404553800E-02
  4.903345432224E-02  4.551148639469E-02  4.220690777782E-02  3.910889273781E-02
  3.620701047286E-02  3.349121301637E-02  3.095182422878E-02  2.857952975854E-02
  2.636536785731E-02  2.430072093878E-02  2.237730777288E-02  2.058717621030E-02
  1.892269633450E-02  1.737655394240E-02  1.594174425875E-02  1.461156579513E-02
  1.337961427117E-02  1.223977652384E-02  1.118622434005E-02  1.021340815797E-02
  9.316050593737E-03  8.489139761167E-03  7.727922363729E-03  7.027896548709E-03
  6.384804523861E-03  5.794624946124E-03  5.253565100181E-03  4.758052891566E-03
  4.304728684605E-03  3.890437019741E-03  3.512218247692E-03  3.167300119587E-03
  2.853089372748E-03  2.567163351332E-03  2.307261699665E-03  2.071278164061E-03
  1.857252536212E-03  1.663362768150E-03  1.487917285343E-03  1.329347520872E-03
  1.186200689935E-03  1.057132820232E-03  9.409020501903E-04  8.363622035792E-04
  7.424566458574E-04  6.582124246995E-04  5.827346944453E-04  5.152014220157E-04
  4.548583699013E-04  4.010143500471E-04  3.530367412325E-04  3.103472615911E-04
  2.724179871087E-04  2.387676064472E-04  2.089579021890E-04  1.825904484848E-04
  1.593035151345E-04  1.387691682842E-04  1.206905581615E-04  1.047993845625E-04
  9.085353113428E-05  7.863485983789E-05  6.794715732453E-05  5.861422529445E-05
  5.047810723194E-05  4.339744421462E-05  3.724595277994E-05  3.191101809714E-05
  2.729239594013E-05  2.330101718836E-05  1.985788880172E-05  1.689308542510E-05
  1.434482598059E-05  1.215862980438E-05  1.028654708211E-05  8.686458533356E-06
  7.321439494007E-06  6.159183745640E-06  5.171482643250E-06  4.333755297856E-06
  3.624625777148E-06  3.025543495629E-06  2.520443174289E-06  2.095440958036E-06
  1.738563485774E-06  1.439506911990E-06  1.189423079155E-06  9.807302358881E-07
  8.069458859951E-07  6.625395371598E-07  5.428032946525E-07  4.437384142517E-07
  3.619560892315E-07  2.945908983744E-07  2.392254853123E-07  1.938251739547E-07
  1.566813503157E-07  1.263625577844E-07  1.016723609417E-07  8.161313264940E-08
  6.535501060429E-08  5.220935319491E-08  4.160610069270E-08  3.307451695192E-08
  2.622684929901E-08  2.074450059132E-08  1.636635794891E-08  1.287896784122E-08
  1.010828746503E-08  7.912778092324E-09  6.177637692270E-09  4.809998017680E-09
  3.734935852442E-09  2.892169577853E-09  2.233330948398E-09  1.719718262854E-09
  1.320451244465E-09  1.010960151770E-09  7.717521551853E-10  5.874070386697E-10
  4.457620059346E-10  3.372519530619E-10  2.543771630936E-10  1.912751156791E-10
  1.433771038499E-10  1.071337141737E-10  7.979604714607E-11  5.924191149010E-11
  4.383818860892E-11  3.233219210518E-11  2.376619418957E-11  1.741040082600E-11
  1.271056906475E-11  9.247206024611E-12  6.703897321165E-12  4.842807035898E-12
  3.485791502074E-12  2.499891874240E-12  1.779837885927E-12  1.267172164877E-12
  8.987651361021E-13  6.079624549100E-13  4.281392090797E-13  3.003229343769E-13
  2.098296837892E-13  1.460157512914E-13  1.011966200594E-13  6.984651337090E-14
  4.800810053078E-14  3.285895594352E-14  2.239445785378E-14  1.519682081244E-14
  1.026757529668E-14  6.906584125697E-15  4.625045237889E-15  3.083206867131E-15
  2.045972500283E-15  1.351398793663E-15  8.884433432582E-16  5.813183059425E-16
  3.785398355773E-16  2.452999639591E-16  1.581781013152E-16  1.014921789215E-16
  6.479331409035E-17  4.115408515539E-17  2.600484517364E-17  1.634659326710E-17
  1.022126575659E-17  6.357099211485E-18  3.932441737318E-18  2.419281359010E-18
  1.480139576100E-18  9.004969832217E-19  5.447483121752E-19  3.276528510231E-19
  1.959324933509E-19  1.164777846284E-19  6.883243947960E-20  4.043203242010E-20
  2.360526539879E-20  1.369655280762E-20  7.897697964289E-21  4.525264907895E-21
  2.576372879965E-21  1.457341115818E-21  8.189693105569E-22  4.571867126377E-22
  2.535152991165E-22  1.396254301935E-22  0.000000000000E+00  0.000000000000E+00
  0.000000000000E+00  0.000000000000E+00  0.000000000000E+00  0.000000000000E+00
  0.000000000000E+00  0.000000000000E+00  0.000000000000E+00  0.000000000000E+00
  0.000000000000E+00  0.000000000000E+00  0.000000000000E+00  0.000000000000E+00
  0.000000000000E+00  0.000000000000E+00  0.000000000000E+00  0.000000000000E+00
  0.000000000000E+00
</data>
</radfunc>
</valence-charge>
<pseudocore-charge matching-radius="0.842645916266"
 number-of-continuous-derivatives="4">
<annotation model-charge-form="Teter function with specified parameters" />
<radfunc>
<data npts="275">
  7.993582487565E+01  7.993099403299E+01  7.991655292821E+01  7.989245989639E+01
  7.985896167324E+01  7.981491388386E+01  7.975877356319E+01  7.969448527937E+01
  7.962219643574E+01  7.953789143181E+01  7.944285905935E+01  7.933955791781E+01
  7.921470217744E+01  7.908429107017E+01  7.893043636261E+01  7.877676794587E+01
  7.859979892046E+01  7.843203573711E+01  7.824342004566E+01  7.803141715557E+01
  7.779319965921E+01  7.758164613726E+01  7.734953201804E+01  7.709492744010E+01
  7.681573575377E+01  7.650968216975E+01  7.617430232677E+01  7.590192663543E+01
  7.561035794004E+01  7.529832459209E+01  7.496448310963E+01  7.460741609463E+01
  7.422563044486E+01  7.381755593996E+01  7.338154429311E+01  7.291586877357E+01
  7.241872451992E+01  7.188822968016E+01  7.151507505864E+01  7.112563215596E+01
  7.071928975809E+01  7.029542376144E+01  6.985339801993E+01  6.939256534925E+01
  6.891226870306E+01  6.841184253690E+01  6.789061437604E+01  6.734790660478E+01
  6.678303849481E+01  6.619532849158E+01  6.558409677744E+01  6.494866813145E+01
  6.428837510536E+01  6.360256153575E+01  6.289058641197E+01  6.215182811889E+01
  6.138568907298E+01  6.059160076856E+01  5.976902924980E+01  5.891748102141E+01
  5.803650940836E+01  5.712572137131E+01  5.618478478009E+01  5.521343614228E+01
  5.421148877793E+01  5.317884142403E+01  5.211548724399E+01  5.157232107897E+01
  5.102152320787E+01  5.046312356423E+01  4.989715979790E+01  4.932367759188E+01
  4.874273098175E+01  4.815438267679E+01  4.755870438207E+01  4.695577712076E+01
  4.634569155561E+01  4.572854830876E+01  4.510445827868E+01  4.447354295322E+01
  4.383593471750E+01  4.319177715531E+01  4.254122534274E+01  4.188444613241E+01
  4.122161842695E+01  4.055293343988E+01  3.987859494234E+01  3.919881949371E+01
  3.851383665430E+01  3.782388917816E+01  3.712923318381E+01  3.643013830090E+01
  3.572688779047E+01  3.501977863653E+01  3.430912160670E+01  3.359524127939E+01
  3.287847603508E+01  3.215917800924E+01  3.143771300435E+01  3.071446035840E+01
  2.998981276745E+01  2.926417605951E+01  2.853796891749E+01  2.781162254845E+01
  2.708558029696E+01  2.636029720016E+01  2.563623948227E+01  2.491388398661E+01
  2.419371754293E+01  2.347623626866E+01  2.276194480228E+01  2.205135546763E+01
  2.134498736820E+01  2.064336541067E+01  1.994701925742E+01  1.925648220792E+01
  1.857229000969E+01  1.789497959955E+01  1.722508777672E+01  1.656314980963E+01
  1.590969797900E+01  1.526526006034E+01  1.463035774950E+01  1.400550503580E+01
  1.339120652778E+01  1.278795573739E+01  1.219623332913E+01  1.161650534149E+01
  1.104922138866E+01  1.049481285134E+01  9.953691066201E+00  9.426245524188E+00
  8.912842088770E+00  8.413821245663E+00  7.929496396386E+00  7.460152208469E+00
  7.006043035658E+00  6.567391421905E+00  6.144386703218E+00  5.737183721673E+00
  5.345901666000E+00  4.970623053052E+00  4.611392864340E+00  4.268217851380E+00
  3.941066023112E+00  3.629866327887E+00  3.334508541623E+00  3.054843372577E+00
  2.790682791848E+00  2.541800597180E+00  2.307933215866E+00  2.088780750567E+00
  1.884008269700E+00  1.693247341676E+00  1.516097809727E+00  1.352129801373E+00
  1.200885963761E+00  1.061883913183E+00  9.346188841329E-01  8.185665602355E-01
  7.131860664571E-01  6.179230990921E-01  5.322131672959E-01  4.554849173698E-01
  3.871635087014E-01  3.266740082824E-01  2.734447691100E-01  2.269107566087E-01
  1.865167865280E-01  1.517206376393E-01  1.219960030155E-01  9.683524476587E-02
  7.575191884300E-02  5.828303895599E-02  4.399105170606E-02  3.246549880047E-02
  2.332434655601E-02  1.621496782718E-02  1.081476691227E-02  6.831443813755E-03
  4.002900347811E-03  2.096796885832E-03  9.097748261934E-04  2.663660840968E-04
  1.761678781033E-05  3.945781415136E-05  2.308596180856E-04  5.118128506936E-04
  8.211793688858E-04  1.114460290368E-03  1.361528635037E-03  1.544373747259E-03
  1.654903077372E-03  1.692844022044E-03  1.663784433522E-03  1.577385206168E-03
  1.445792180253E-03  1.282267658047E-03  1.100054335486E-03  9.114766774578E-04
  7.272769925366E-04  5.561759931686E-04  4.046407581311E-04  2.768370287240E-04
  1.747379216099E-04  9.835763752182E-05  4.607673575927E-05  1.502510905971E-05
  1.489933283861E-06  1.318499881452E-06  1.028980238734E-05  2.443380048189E-05
  4.028311980163E-05  5.504820639985E-05  6.671325635273E-05  7.405619377753E-05
  7.660120665727E-05  7.451655004331E-05  6.847324438869E-05  5.948178082291E-05
  4.872395135958E-05  3.739552138182E-05  2.657283723312E-05  1.711289542693E-05
  9.592250695210E-06  4.285812751778E-06  1.182490685923E-06  3.117389260473E-08
  4.080057815686E-07  1.794526327729E-06  3.656121870635E-06  5.511279167409E-06
  6.984216609270E-06  7.836266300646E-06  7.974533979498E-06  7.439461853811E-06
  6.375570284810E-06  4.991532241104E-06  3.516624232499E-06  2.160424206676E-06
  1.081467866589E-06  3.686489999755E-07  3.678556660131E-08  0.000000000000E+00
  0.000000000000E+00  0.000000000000E+00  0.000000000000E+00  0.000000000000E+00
  0.000000000000E+00  0.000000000000E+00  0.000000000000E+00  0.000000000000E+00
  0.000000000000E+00  0.000000000000E+00  0.000000000000E+00  0.000000000000E+00
  0.000000000000E+00  0.000000000000E+00  0.000000000000E+00  0.000000000000E+00
  0.000000000000E+00  0.000000000000E+00  0.000000000000E+00  0.000000000000E+00
  0.000000000000E+00  0.000000000000E+00  0.000000000000E+00  0.000000000000E+00
  0.000000000000E+00  0.000000000000E+00  0.000000000000E+00  0.000000000000E+00
  0.000000000000E+00  0.000000000000E+00  0.000000000000E+00
</data>
</radfunc>
</pseudocore-charge>
<semilocal-potentials set="lj">
<slps n="5" l="s" j="0.5" rc="1.60469609438" eref="-3.59415440473">
<radfunc>
<data npts="275">
 -9.862455911236E+00 -9.863889828957E+00 -9.868175083503E+00 -9.875320408368E+00
 -9.885246663537E+00 -9.898284153325E+00 -9.914876470126E+00 -9.933843432480E+00
 -9.955128193805E+00 -9.979894189294E+00 -1.000773842126E+01 -1.003791780907E+01
 -1.007427309988E+01 -1.011210492111E+01 -1.015655326122E+01 -1.020074963670E+01
 -1.025140360769E+01 -1.029918304224E+01 -1.035262475146E+01 -1.041234588918E+01
 -1.047901689815E+01 -1.053784273319E+01 -1.060197510833E+01 -1.067183153665E+01
 -1.074785014223E+01 -1.083048808487E+01 -1.092021929464E+01 -1.099246558786E+01
 -1.106918544452E+01 -1.115059029599E+01 -1.123689211442E+01 -1.132830180822E+01
 -1.142502737380E+01 -1.152727178758E+01 -1.163523062376E+01 -1.174908938612E+01
 -1.186902054512E+01 -1.199518027590E+01 -1.208281533037E+01 -1.217331441628E+01
 -1.226670702094E+01 -1.236301685321E+01 -1.246226125953E+01 -1.256445061982E+01
 -1.266958772516E+01 -1.277766713983E+01 -1.288867455061E+01 -1.300258610630E+01
 -1.311936775123E+01 -1.323897455634E+01 -1.336135005217E+01 -1.348642556799E+01
 -1.361411958184E+01 -1.374433708607E+01 -1.387696897344E+01 -1.401189144857E+01
 -1.414896546974E+01 -1.428803622579E+01 -1.442893265262E+01 -1.457146699378E+01
 -1.471543440896E+01 -1.486061263391E+01 -1.500676169485E+01 -1.515362367971E+01
 -1.530092256803E+01 -1.544836412066E+01 -1.559563582972E+01 -1.566910534007E+01
 -1.574240692854E+01 -1.581549640775E+01 -1.588832846094E+01 -1.596085664733E+01
 -1.603303340827E+01 -1.610481007420E+01 -1.617613687257E+01 -1.624696293636E+01
 -1.631723631363E+01 -1.638690397762E+01 -1.645591183774E+01 -1.652420475128E+01
 -1.659172653580E+01 -1.665841998230E+01 -1.672422686908E+01 -1.678908797628E+01
 -1.685294310117E+01 -1.691573107421E+01 -1.697738977570E+01 -1.703785615338E+01
 -1.709706624065E+01 -1.715495517572E+01 -1.721145722158E+01 -1.726650578694E+01
 -1.732003344812E+01 -1.737197197203E+01 -1.742225234033E+01 -1.747080477484E+01
 -1.751755876434E+01 -1.756244309287E+01 -1.760538586974E+01 -1.764631456131E+01
 -1.768515602481E+01 -1.772183654435E+01 -1.775628186932E+01 -1.778841725549E+01
 -1.781816750892E+01 -1.784545703313E+01 -1.787020987958E+01 -1.789234980204E+01
 -1.791180031494E+01 -1.792848475610E+01 -1.794232635438E+01 -1.795324830227E+01
 -1.796117383424E+01 -1.796602631086E+01 -1.796772930947E+01 -1.796620672157E+01
 -1.796138285766E+01 -1.795318255974E+01 -1.794153132227E+01 -1.792635542183E+01
 -1.790758205631E+01 -1.788513949388E+01 -1.785895723269E+01 -1.782896617150E+01
 -1.779509879224E+01 -1.775728935489E+01 -1.771547410543E+01 -1.766959149758E+01
 -1.761958242898E+01 -1.756539049247E+01 -1.750696224336E+01 -1.744424748320E+01
 -1.737719956088E+01 -1.730577569177E+01 -1.722993729544E+01 -1.714965035264E+01
 -1.706488578214E+01 -1.697561983766E+01 -1.688183452540E+01 -1.678351804231E+01
 -1.668066523505E+01 -1.657327807951E+01 -1.646136618056E+01 -1.634494729144E+01
 -1.622404785205E+01 -1.609870354522E+01 -1.596895987008E+01 -1.583487273141E+01
 -1.569650904422E+01 -1.555394735311E+01 -1.540727846657E+01 -1.525660610731E+01
 -1.510204758117E+01 -1.494373446930E+01 -1.478181335056E+01 -1.461644656503E+01
 -1.444781303342E+01 -1.427610915292E+01 -1.410154979655E+01 -1.392436945067E+01
 -1.374482353496E+01 -1.356318995912E+01 -1.337977098272E+01 -1.319489545696E+01