Se    ONCVPSP-3.3.0  r_core=   1.81943   1.55807   2.07453
34.0000      6.0000      180430    zatom,zion,pspd
8 -116133   2     4   600     0    pspcod,pspxc,lmax,lloc,mmax,r2well
5.99000000  9.50000000  0.00000000    rchrg fchrg qchrg
2     3     3     0    nproj
3     1           extension_switch
4     4     0    nprojso
0                         1.2428760053920D+00  1.1092956280359D+01
1  0.0000000000000D+00  1.0656816540333D-09 -6.4738275851184D-10
2  1.0000000000000D-02 -2.6616184352765D-02  4.7062839289121D-02
3  2.0000000000000D-02 -5.3082589533690D-02  9.4024827935037D-02
4  3.0000000000000D-02 -7.9251018371129D-02  1.4078605279503D-01
5  4.0000000000000D-02 -1.0497641666556D-01  1.8724846307440D-01
6  5.0000000000000D-02 -1.3011839238005D-01  2.3331677003531D-01
7  6.0000000000000D-02 -1.5454267284260D-01  2.7889930941301D-01
8  7.0000000000000D-02 -1.7812248056506D-01  3.2390885487893D-01
9  8.0000000000000D-02 -2.0073980934905D-01  3.6826337153685D-01
10  9.0000000000000D-02 -2.2228658365571D-01  4.1188669923263D-01
11  1.0000000000000D-01 -2.4266568574758D-01  4.5470915638743D-01
12  1.1000000000000D-01 -2.6179183684677D-01  4.9666805611876D-01
13  1.2000000000000D-01 -2.7959232047292D-01  5.3770812757870D-01
14  1.3000000000000D-01 -2.9600753820242D-01  5.7778183669997D-01
15  1.4000000000000D-01 -3.1099139030082D-01  6.1684960188143D-01
16  1.5000000000000D-01 -3.2451147599492D-01  6.5487990154875D-01
17  1.6000000000000D-01 -3.3654911054055D-01  6.9184927197450D-01
18  1.7000000000000D-01 -3.4709915867613D-01  7.2774219521725D-01
19  1.8000000000000D-01 -3.5616968649895D-01  7.6255087852096D-01
20  1.9000000000000D-01 -3.6378143623034D-01  7.9627492798690D-01
21  2.0000000000000D-01 -3.6996713071588D-01  8.2892092076929D-01
22  2.1000000000000D-01 -3.7477061680614D-01  8.6050188143629D-01
23  2.2000000000000D-01 -3.7824585895415D-01  8.9103666945964D-01
24  2.3000000000000D-01 -3.8045579641738D-01  9.2054928603420D-01
25  2.4000000000000D-01 -3.8147107933898D-01  9.4906810956396D-01
26  2.5000000000000D-01 -3.8136870068049D-01  9.7662507017111D-01
27  2.6000000000000D-01 -3.8023054246246D-01  1.0032547744743D+00
28  2.7000000000000D-01 -3.7814185602234D-01  1.0289935926294D+00
29  2.8000000000000D-01 -3.7518969700154D-01  1.0538787202220D+00
30  2.9000000000000D-01 -3.7146133651349D-01  1.0779472280333D+00
31  3.0000000000000D-01 -3.6704267040934D-01  1.1012351129705D+00
32  3.1000000000000D-01 -3.6201664874198D-01  1.1237763635461D+00
33  3.2000000000000D-01 -3.5646174742681D-01  1.1456020532121D+00
34  3.3000000000000D-01 -3.5045050371031D-01  1.1667394746042D+00
35  3.4000000000000D-01 -3.4404813638678D-01  1.1872113273248D+00
36  3.5000000000000D-01 -3.3731127075826D-01  1.2070349713040D+00
37  3.6000000000000D-01 -3.3028678712083D-01  1.2262217570236D+00
38  3.7000000000000D-01 -3.2301081009817D-01  1.2447764429868D+00
39  3.8000000000000D-01 -3.1550785444522D-01  1.2626967097663D+00
40  3.9000000000000D-01 -3.0779014103333D-01  1.2799727787922D+00
41  4.0000000000000D-01 -2.9985709462355D-01  1.2965871427454D+00
42  4.1000000000000D-01 -2.9169503276510D-01  1.3125144130338D+00
43  4.2000000000000D-01 -2.8327705274584D-01  1.3277212883545D+00
44  4.3000000000000D-01 -2.7456312100330D-01  1.3421666468048D+00
45  4.4000000000000D-01 -2.6550036680718D-01  1.3558017624231D+00
46  4.5000000000000D-01 -2.5602357938073D-01  1.3685706454294D+00
47  4.6000000000000D-01 -2.4605590497126D-01  1.3804105038171D+00
48  4.7000000000000D-01 -2.3550973774348D-01  1.3912523223492D+00
49  4.8000000000000D-01 -2.2428779578546D-01  1.4010215534439D+00
50  4.9000000000000D-01 -2.1228437101950D-01  1.4096389129219D+00
51  5.0000000000000D-01 -1.9938673943104D-01  1.4170212721502D+00
52  5.1000000000000D-01 -1.8547671579779D-01  1.4230826367741D+00
53  5.2000000000000D-01 -1.7043233504933D-01  1.4277352009926D+00
54  5.3000000000000D-01 -1.5412964053896D-01  1.4308904652265D+00
55  5.4000000000000D-01 -1.3644455789146D-01  1.4324604040623D+00
56  5.5000000000000D-01 -1.1725483172513D-01  1.4323586705447D+00
57  5.6000000000000D-01 -9.6442001448213D-02  1.4305018222471D+00
58  5.7000000000000D-01 -7.3893391522693D-02  1.4268105540781D+00
59  5.8000000000000D-01 -4.9504091075328D-02  1.4212109225006D+00
60  5.9000000000000D-01 -2.3178897533602D-02  1.4136355457395D+00
61  6.0000000000000D-01  5.1658009276321D-03  1.4040247646473D+00
62  6.1000000000000D-01  3.5600228921913D-02  1.3923277491817D+00
63  6.2000000000000D-01  6.8179537426292D-02  1.3785035359241D+00
64  6.3000000000000D-01  1.0294225042238D-01  1.3625219827193D+00
65  6.4000000000000D-01  1.3990886629239D-01  1.3443646273606D+00
66  6.5000000000000D-01  1.7908063405333D-01  1.3240254382431D+00
67  6.6000000000000D-01  2.2043852264363D-01  1.3015114460704D+00
68  6.7000000000000D-01  2.6394239935825D-01  1.2768432470095D+00
69  6.8000000000000D-01  3.0953043120030D-01  1.2500553691250D+00
70  6.9000000000000D-01  3.5711872040859D-01  1.2211964954674D+00
71  7.0000000000000D-01  4.0660118272710D-01  1.1903295388413D+00
72  7.1000000000000D-01  4.5784967418622D-01  1.1575315649938D+00
73  7.2000000000000D-01  5.1071436925673D-01  1.1228935627388D+00
74  7.3000000000000D-01  5.6502439028290D-01  1.0865200613358D+00
75  7.4000000000000D-01  6.2058868510761D-01  1.0485285972614D+00
76  7.5000000000000D-01  6.7719714682864D-01  1.0090490343190D+00
77  7.6000000000000D-01  7.3462196670107D-01  9.6822274280201D-01
78  7.7000000000000D-01  7.9261920835651D-01  9.2620164514318D-01
79  7.8000000000000D-01  8.5093058878721D-01  8.8314713712567D-01
80  7.9000000000000D-01  9.0928544897357D-01  8.3922889527107D-01
81  8.0000000000000D-01  9.6740289464662D-01  7.9462358244916D-01
82  8.1000000000000D-01  1.0249940855156D+00  7.4951346504038D-01
83  8.2000000000000D-01  1.0817646493552D+00  7.0408495612722D-01
84  8.3000000000000D-01  1.1374171956976D+00  6.5852710015921D-01
85  8.4000000000000D-01  1.1916539025026D+00  6.1303001533159D-01
86  8.5000000000000D-01  1.2441791481223D+00  5.6778331052089D-01
87  8.6000000000000D-01  1.2947021601347D+00  5.2297449402577D-01
88  8.7000000000000D-01  1.3429396522220D+00  4.7878739156244D-01
89  8.8000000000000D-01  1.3886184201981D+00  4.3540059095646D-01
90  8.9000000000000D-01  1.4314778685711D+00  3.9298593075704D-01
91  9.0000000000000D-01  1.4712724396411D+00  3.5170704957653D-01
92  9.1000000000000D-01  1.5077739180839D+00  3.1171801233249D-01
93  9.2000000000000D-01  1.5407735852552D+00  2.7316202874199D-01
94  9.3000000000000D-01  1.5700841990138D+00  2.3617027842131D-01
95  9.4000000000000D-01  1.5955417767653D+00  2.0086085574315D-01
96  9.5000000000000D-01  1.6170071615564D+00  1.6733784626789D-01
97  9.6000000000000D-01  1.6343673534510D+00  1.3569054506936D-01
98  9.7000000000000D-01  1.6475365910245D+00  1.0599282565528D-01
99  9.8000000000000D-01  1.6564571706122D+00  7.8302666453673D-02
100  9.9000000000000D-01  1.6610999938913D+00  5.2661840020429D-02
101  1.0000000000000D+00  1.6614648374408D+00  2.9095768241802D-02
102  1.0100000000000D+00  1.6575803411216D+00  7.6135448478637D-03
103  1.0200000000000D+00  1.6495037151524D+00 -1.1791875296946D-02
104  1.0300000000000D+00  1.6373201691672D+00 -2.9143322734751D-02
105  1.0400000000000D+00  1.6211420695371D+00 -4.4478900209154D-02
106  1.0500000000000D+00  1.6011078343781D+00 -5.7851316031592D-02
107  1.0600000000000D+00  1.5773805786776D+00 -6.9327072143896D-02
108  1.0700000000000D+00  1.5501465247240D+00 -7.8985516647825D-02
109  1.0800000000000D+00  1.5196131956738D+00 -8.6917772147462D-02
110  1.0900000000000D+00  1.4860074126434D+00 -9.3225552755458D-02
111  1.1000000000000D+00  1.4495731177501D+00 -9.8019883806870D-02
112  1.1100000000000D+00  1.4105690475834D+00 -1.0141973950860D-01
113  1.1200000000000D+00  1.3692662829940D+00 -1.0355061455816D-01
114  1.1300000000000D+00  1.3259457026823D+00 -1.0454304664979D-01
115  1.1400000000000D+00  1.2808953688710D+00 -1.0453110720785D-01
116  1.1500000000000D+00  1.2344078739940D+00 -1.0365087799132D-01
117  1.1600000000000D+00  1.1867776776487D+00 -1.0203893133741D-01
118  1.1700000000000D+00  1.1382984630721D+00 -9.9830831716136D-02
119  1.1800000000000D+00  1.0892605419168D+00 -9.7159675887695D-02
120  1.1900000000000D+00  1.0399483350974D+00 -9.4154688241596D-02
121  1.2000000000000D+00  9.9063795710842D-01 -9.0939887614171D-02
122  1.2100000000000D+00  9.4159492902048D-01 -8.7632840402766D-02
123  1.2200000000000D+00  8.9307204377190D-01 -8.4343513760295D-02
124  1.2300000000000D+00  8.4530740596019D-01 -8.1173241721791D-02
125  1.2400000000000D+00  7.9852266566054D-01 -7.8213815372581D-02
126  1.2500000000000D+00  7.5292146281963D-01 -7.5546706269779D-02
127  1.2600000000000D+00  7.0868809697674D-01 -7.3242431184033D-02
128  1.2700000000000D+00  6.6598643435749D-01 -7.1360064497759D-02
129  1.2800000000000D+00  6.2495905977243D-01 -6.9946901698990D-02
130  1.2900000000000D+00  5.8572667952480D-01 -6.9038276646158D-02
131  1.3000000000000D+00  5.4838777845342D-01 -6.8657533335132D-02
132  1.3100000000000D+00  5.1301852865723D-01 -6.8816149448418D-02
133  1.3200000000000D+00  4.7967294762737D-01 -6.9514009083528D-02
134  1.3300000000000D+00  4.4838329908560D-01 -7.0739819302939D-02
135  1.3400000000000D+00  4.1916072494962D-01 -7.2471662196567D-02
136  1.3500000000000D+00  3.9199609858320D-01 -7.4677675194281D-02
137  1.3600000000000D+00  3.6686108270140D-01 -7.7316848230615D-02
138  1.3700000000000D+00  3.4370937381511D-01 -8.0339925550758D-02
139  1.3800000000000D+00  3.2247811635580D-01 -8.3690400615742D-02
140  1.3900000000000D+00  3.0308946182719D-01 -8.7305588023236D-02
141  1.4000000000000D+00  2.8545225216559D-01 -9.1117758651495D-02
142  1.4100000000000D+00  2.6946380225305D-01 -9.5055321679296D-02
143  1.4200000000000D+00  2.5501175596035D-01 -9.9044037103190D-02
144  1.4300000000000D+00  2.4197599066854D-01 -1.0300824240724D-01
145  1.4400000000000D+00  2.3023054312188D-01 -1.0687207630766D-01
146  1.4500000000000D+00  2.1964553165133D-01 -1.1056068362427D-01
147  1.4600000000000D+00  2.1008904710346D-01 -1.1400138380450D-01
148  1.4700000000000D+00  2.0142899089865D-01 -1.1712478983198D-01
149  1.4800000000000D+00  1.9353483123397D-01 -1.1986585911758D-01
150  1.4900000000000D+00  1.8627926069141D-01 -1.2216486653131D-01
151  1.5000000000000D+00  1.7953972907382D-01 -1.2396828315180D-01
152  1.5100000000000D+00  1.7319983263824D-01 -1.2522955062423D-01
153  1.5200000000000D+00  1.6715056307543D-01 -1.2590974688882D-01
154  1.5300000000000D+00  1.6129131851583D-01 -1.2597810894159D-01
155  1.5400000000000D+00  1.5553092137434D-01 -1.2541248536238D-01
156  1.5500000000000D+00  1.4978813822905D-01 -1.2419955954638D-01
157  1.5600000000000D+00  1.4399190182572D-01 -1.2233491595471D-01
158  1.5700000000000D+00  1.3808278422083D-01 -1.1982338047137D-01
159  1.5800000000000D+00  1.3201399445009D-01 -1.1667915462764D-01
160  1.5900000000000D+00  1.2575235118140D-01 -1.1292589086744D-01
161  1.6000000000000D+00  1.1927880927787D-01 -1.0859656457346D-01
162  1.6100000000000D+00  1.1258768856027D-01 -1.0373290359518D-01
163  1.6200000000000D+00  1.0568605207632D-01 -9.8384794641402D-02
164  1.6300000000000D+00  9.8593016238823D-02 -9.2609602371622D-02
165  1.6400000000000D+00  9.1338778201556D-02 -8.6471352933239D-02
166  1.6500000000000D+00  8.3963540805700D-02 -8.0039837420525D-02
167  1.6600000000000D+00  7.6516292173564D-02 -7.3389631183093D-02
168  1.6700000000000D+00  6.9053478387301D-02 -6.6599048191413D-02
169  1.6800000000000D+00  6.1637586282047D-02 -5.9749043738121D-02
170  1.6900000000000D+00  5.4335659042634D-02 -5.2922080742188D-02
171  1.7000000000000D+00  4.7217768180180D-02 -4.6200976003935D-02
172  1.7100000000000D+00  4.0355463176583D-02 -3.9667740595268D-02
173  1.7200000000000D+00  3.3820226161467D-02 -3.3402433058410D-02
174  1.7300000000000D+00  2.7681949453891D-02 -2.7482037254134D-02
175  1.7400000000000D+00  2.2007465607654D-02 -2.1979384827902D-02
176  1.7500000000000D+00  1.6859144350144D-02 -1.6962131870787D-02
177  1.7600000000000D+00  1.2294826328875D-02 -1.2493518001517D-02
178  1.7700000000000D+00  8.3622977688918D-03 -8.6255429709898D-03
179  1.7800000000000D+00  5.0974563887278D-03 -5.3955620275559D-03
180  1.7900000000000D+00  2.5396352942185D-03 -2.8525509419855D-03
181  1.8000000000000D+00  7.2679319976372D-04 -1.0591549709725D-03
182  1.8100000000000D+00 -3.4062069598465D-04 -1.5721036671666D-05
183  1.8200000000000D+00 -6.9250232280133D-04  3.7487109611414D-04
184  1.8300000000000D+00 -4.4709301162416D-04  2.7797155242183D-04
185  1.8400000000000D+00 -4.3269961046959D-05  2.8053082379614D-05
186  1.8500000000000D+00  1.0043942565916D-04 -6.6192451213726D-05
187  1.8600000000000D+00  3.8449219694009D-05 -2.5694120878529D-05
188  1.8700000000000D+00 -1.8718315230233D-05  1.1945889053470D-05
189  1.8800000000000D+00 -1.4374480373161D-05  9.2413078826638D-06
190  1.8900000000000D+00  1.2219376130713D-06 -6.5076930224081D-07
191  1.9000000000000D+00  1.7423590584481D-06 -9.2793099794122D-07
192  1.9100000000000D+00  0.0000000000000D+00  0.0000000000000D+00
193  1.9200000000000D+00  0.0000000000000D+00  0.0000000000000D+00
194  1.9300000000000D+00  0.0000000000000D+00  0.0000000000000D+00
195  1.9400000000000D+00  0.0000000000000D+00  0.0000000000000D+00
196  1.9500000000000D+00  0.0000000000000D+00  0.0000000000000D+00
197  1.9600000000000D+00  0.0000000000000D+00  0.0000000000000D+00
198  1.9700000000000D+00  0.0000000000000D+00  0.0000000000000D+00
199  1.9800000000000D+00  0.0000000000000D+00  0.0000000000000D+00
200  1.9900000000000D+00  0.0000000000000D+00  0.0000000000000D+00
201  2.0000000000000D+00  0.0000000000000D+00  0.0000000000000D+00
202  2.0100000000000D+00  0.0000000000000D+00  0.0000000000000D+00
203  2.0200000000000D+00  0.0000000000000D+00  0.0000000000000D+00
204  2.0300000000000D+00  0.0000000000000D+00  0.0000000000000D+00
205  2.0400000000000D+00  0.0000000000000D+00  0.0000000000000D+00
206  2.0500000000000D+00  0.0000000000000D+00  0.0000000000000D+00
207  2.0600000000000D+00  0.0000000000000D+00  0.0000000000000D+00
208  2.0700000000000D+00  0.0000000000000D+00  0.0000000000000D+00
209  2.0800000000000D+00  0.0000000000000D+00  0.0000000000000D+00
210  2.0900000000000D+00  0.0000000000000D+00  0.0000000000000D+00
211  2.1000000000000D+00  0.0000000000000D+00  0.0000000000000D+00
212  2.1100000000000D+00  0.0000000000000D+00  0.0000000000000D+00
213  2.1200000000000D+00  0.0000000000000D+00  0.0000000000000D+00
214  2.1300000000000D+00  0.0000000000000D+00  0.0000000000000D+00
215  2.1400000000000D+00  0.0000000000000D+00  0.0000000000000D+00
216  2.1500000000000D+00  0.0000000000000D+00  0.0000000000000D+00
217  2.1600000000000D+00  0.0000000000000D+00  0.0000000000000D+00
218  2.1700000000000D+00  0.0000000000000D+00  0.0000000000000D+00
219  2.1800000000000D+00  0.0000000000000D+00  0.0000000000000D+00
220  2.1900000000000D+00  0.0000000000000D+00  0.0000000000000D+00
221  2.2000000000000D+00  0.0000000000000D+00  0.0000000000000D+00
222  2.2100000000000D+00  0.0000000000000D+00  0.0000000000000D+00
223  2.2200000000000D+00  0.0000000000000D+00  0.0000000000000D+00
224  2.2300000000000D+00  0.0000000000000D+00  0.0000000000000D+00
225  2.2400000000000D+00  0.0000000000000D+00  0.0000000000000D+00
226  2.2500000000000D+00  0.0000000000000D+00  0.0000000000000D+00
227  2.2600000000000D+00  0.0000000000000D+00  0.0000000000000D+00
228  2.2700000000000D+00  0.0000000000000D+00  0.0000000000000D+00
229  2.2800000000000D+00  0.0000000000000D+00  0.0000000000000D+00
230  2.2900000000000D+00  0.0000000000000D+00  0.0000000000000D+00
231  2.3000000000000D+00  0.0000000000000D+00  0.0000000000000D+00
232  2.3100000000000D+00  0.0000000000000D+00  0.0000000000000D+00
233  2.3200000000000D+00  0.0000000000000D+00  0.0000000000000D+00
234  2.3300000000000D+00  0.0000000000000D+00  0.0000000000000D+00
235  2.3400000000000D+00  0.0000000000000D+00  0.0000000000000D+00
236  2.3500000000000D+00  0.0000000000000D+00  0.0000000000000D+00
237  2.3600000000000D+00  0.0000000000000D+00  0.0000000000000D+00
238  2.3700000000000D+00  0.0000000000000D+00  0.0000000000000D+00
239  2.3800000000000D+00  0.0000000000000D+00  0.0000000000000D+00
240  2.3900000000000D+00  0.0000000000000D+00  0.0000000000000D+00
241  2.4000000000000D+00  0.0000000000000D+00  0.0000000000000D+00
242  2.4100000000000D+00  0.0000000000000D+00  0.0000000000000D+00
243  2.4200000000000D+00  0.0000000000000D+00  0.0000000000000D+00
244  2.4300000000000D+00  0.0000000000000D+00  0.0000000000000D+00
245  2.4400000000000D+00  0.0000000000000D+00  0.0000000000000D+00
246  2.4500000000000D+00  0.0000000000000D+00  0.0000000000000D+00
247  2.4600000000000D+00  0.0000000000000D+00  0.0000000000000D+00
248  2.4700000000000D+00  0.0000000000000D+00  0.0000000000000D+00
249  2.4800000000000D+00  0.0000000000000D+00  0.0000000000000D+00
250  2.4900000000000D+00  0.0000000000000D+00  0.0000000000000D+00
251  2.5000000000000D+00  0.0000000000000D+00  0.0000000000000D+00
252  2.5100000000000D+00  0.0000000000000D+00  0.0000000000000D+00
253  2.5200000000000D+00  0.0000000000000D+00  0.0000000000000D+00
254  2.5300000000000D+00  0.0000000000000D+00  0.0000000000000D+00
255  2.5400000000000D+00  0.0000000000000D+00  0.0000000000000D+00
256  2.5500000000000D+00  0.0000000000000D+00  0.0000000000000D+00
257  2.5600000000000D+00  0.0000000000000D+00  0.0000000000000D+00
258  2.5700000000000D+00  0.0000000000000D+00  0.0000000000000D+00
259  2.5800000000000D+00  0.0000000000000D+00  0.0000000000000D+00
260  2.5900000000000D+00  0.0000000000000D+00  0.0000000000000D+00
261  2.6000000000000D+00  0.0000000000000D+00  0.0000000000000D+00
262  2.6100000000000D+00  0.0000000000000D+00  0.0000000000000D+00
263  2.6200000000000D+00  0.0000000000000D+00  0.0000000000000D+00
264  2.6300000000000D+00  0.0000000000000D+00  0.0000000000000D+00
265  2.6400000000000D+00  0.0000000000000D+00  0.0000000000000D+00
266  2.6500000000000D+00  0.0000000000000D+00  0.0000000000000D+00
267  2.6600000000000D+00  0.0000000000000D+00  0.0000000000000D+00
268  2.6700000000000D+00  0.0000000000000D+00  0.0000000000000D+00
269  2.6800000000000D+00  0.0000000000000D+00  0.0000000000000D+00
270  2.6900000000000D+00  0.0000000000000D+00  0.0000000000000D+00
271  2.7000000000000D+00  0.0000000000000D+00  0.0000000000000D+00
272  2.7100000000000D+00  0.0000000000000D+00  0.0000000000000D+00
273  2.7200000000000D+00  0.0000000000000D+00  0.0000000000000D+00
274  2.7300000000000D+00  0.0000000000000D+00  0.0000000000000D+00
275  2.7400000000000D+00  0.0000000000000D+00  0.0000000000000D+00
276  2.7500000000000D+00  0.0000000000000D+00  0.0000000000000D+00
277  2.7600000000000D+00  0.0000000000000D+00  0.0000000000000D+00
278  2.7700000000000D+00  0.0000000000000D+00  0.0000000000000D+00
279  2.7800000000000D+00  0.0000000000000D+00  0.0000000000000D+00
280  2.7900000000000D+00  0.0000000000000D+00  0.0000000000000D+00
281  2.8000000000000D+00  0.0000000000000D+00  0.0000000000000D+00
282  2.8100000000000D+00  0.0000000000000D+00  0.0000000000000D+00
283  2.8200000000000D+00  0.0000000000000D+00  0.0000000000000D+00
284  2.8300000000000D+00  0.0000000000000D+00  0.0000000000000D+00
285  2.8400000000000D+00  0.0000000000000D+00  0.0000000000000D+00
286  2.8500000000000D+00  0.0000000000000D+00  0.0000000000000D+00
287  2.8600000000000D+00  0.0000000000000D+00  0.0000000000000D+00
288  2.8700000000000D+00  0.0000000000000D+00  0.0000000000000D+00
289  2.8800000000000D+00  0.0000000000000D+00  0.0000000000000D+00
290  2.8900000000000D+00  0.0000000000000D+00  0.0000000000000D+00
291  2.9000000000000D+00  0.0000000000000D+00  0.0000000000000D+00
292  2.9100000000000D+00  0.0000000000000D+00  0.0000000000000D+00
293  2.9200000000000D+00  0.0000000000000D+00  0.0000000000000D+00
294  2.9300000000000D+00  0.0000000000000D+00  0.0000000000000D+00
295  2.9400000000000D+00  0.0000000000000D+00  0.0000000000000D+00
296  2.9500000000000D+00  0.0000000000000D+00  0.0000000000000D+00
297  2.9600000000000D+00  0.0000000000000D+00  0.0000000000000D+00
298  2.9700000000000D+00  0.0000000000000D+00  0.0000000000000D+00
299  2.9800000000000D+00  0.0000000000000D+00  0.0000000000000D+00
300  2.9900000000000D+00  0.0000000000000D+00  0.0000000000000D+00
301  3.0000000000000D+00  0.0000000000000D+00  0.0000000000000D+00
302  3.0100000000000D+00  0.0000000000000D+00  0.0000000000000D+00
303  3.0200000000000D+00  0.0000000000000D+00  0.0000000000000D+00
304  3.0300000000000D+00  0.0000000000000D+00  0.0000000000000D+00
305  3.0400000000000D+00  0.0000000000000D+00  0.0000000000000D+00
306  3.0500000000000D+00  0.0000000000000D+00  0.0000000000000D+00
307  3.0600000000000D+00  0.0000000000000D+00  0.0000000000000D+00
308  3.0700000000000D+00  0.0000000000000D+00  0.0000000000000D+00
309  3.0800000000000D+00  0.0000000000000D+00  0.0000000000000D+00
310  3.0900000000000D+00  0.0000000000000D+00  0.0000000000000D+00
311  3.1000000000000D+00  0.0000000000000D+00  0.0000000000000D+00
312  3.1100000000000D+00  0.0000000000000D+00  0.0000000000000D+00
313  3.1200000000000D+00  0.0000000000000D+00  0.0000000000000D+00
314  3.1300000000000D+00  0.0000000000000D+00  0.0000000000000D+00
315  3.1400000000000D+00  0.0000000000000D+00  0.0000000000000D+00
316  3.1500000000000D+00  0.0000000000000D+00  0.0000000000000D+00
317  3.1600000000000D+00  0.0000000000000D+00  0.0000000000000D+00
318  3.1700000000000D+00  0.0000000000000D+00  0.0000000000000D+00
319  3.1800000000000D+00  0.0000000000000D+00  0.0000000000000D+00
320  3.1900000000000D+00  0.0000000000000D+00  0.0000000000000D+00
321  3.2000000000000D+00  0.0000000000000D+00  0.0000000000000D+00
322  3.2100000000000D+00  0.0000000000000D+00  0.0000000000000D+00
323  3.2200000000000D+00  0.0000000000000D+00  0.0000000000000D+00
324  3.2300000000000D+00  0.0000000000000D+00  0.0000000000000D+00
325  3.2400000000000D+00  0.0000000000000D+00  0.0000000000000D+00
326  3.2500000000000D+00  0.0000000000000D+00  0.0000000000000D+00
327  3.2600000000000D+00  0.0000000000000D+00  0.0000000000000D+00
328  3.2700000000000D+00  0.0000000000000D+00  0.0000000000000D+00
329  3.2800000000000D+00  0.0000000000000D+00  0.0000000000000D+00
330  3.2900000000000D+00  0.0000000000000D+00  0.0000000000000D+00
331  3.3000000000000D+00  0.0000000000000D+00  0.0000000000000D+00
332  3.3100000000000D+00  0.0000000000000D+00  0.0000000000000D+00
333  3.3200000000000D+00  0.0000000000000D+00  0.0000000000000D+00
334  3.3300000000000D+00  0.0000000000000D+00  0.0000000000000D+00
335  3.3400000000000D+00  0.0000000000000D+00  0.0000000000000D+00
336  3.3500000000000D+00  0.0000000000000D+00  0.0000000000000D+00
337  3.3600000000000D+00  0.0000000000000D+00  0.0000000000000D+00
338  3.3700000000000D+00  0.0000000000000D+00  0.0000000000000D+00
339  3.3800000000000D+00  0.0000000000000D+00  0.0000000000000D+00
340  3.3900000000000D+00  0.0000000000000D+00  0.0000000000000D+00
341  3.4000000000000D+00  0.0000000000000D+00  0.0000000000000D+00
342  3.4100000000000D+00  0.0000000000000D+00  0.0000000000000D+00
343  3.4200000000000D+00  0.0000000000000D+00  0.0000000000000D+00
344  3.4300000000000D+00  0.0000000000000D+00  0.0000000000000D+00
345  3.4400000000000D+00  0.0000000000000D+00  0.0000000000000D+00
346  3.4500000000000D+00  0.0000000000000D+00  0.0000000000000D+00
347  3.4600000000000D+00  0.0000000000000D+00  0.0000000000000D+00
348  3.4700000000000D+00  0.0000000000000D+00  0.0000000000000D+00
349  3.4800000000000D+00  0.0000000000000D+00  0.0000000000000D+00
350  3.4900000000000D+00  0.0000000000000D+00  0.0000000000000D+00
351  3.5000000000000D+00  0.0000000000000D+00  0.0000000000000D+00
352  3.5100000000000D+00  0.0000000000000D+00  0.0000000000000D+00
353  3.5200000000000D+00  0.0000000000000D+00  0.0000000000000D+00
354  3.5300000000000D+00  0.0000000000000D+00  0.0000000000000D+00
355  3.5400000000000D+00  0.0000000000000D+00  0.0000000000000D+00
356  3.5500000000000D+00  0.0000000000000D+00  0.0000000000000D+00
357  3.5600000000000D+00  0.0000000000000D+00  0.0000000000000D+00
358  3.5700000000000D+00  0.0000000000000D+00  0.0000000000000D+00
359  3.5800000000000D+00  0.0000000000000D+00  0.0000000000000D+00
360  3.5900000000000D+00  0.0000000000000D+00  0.0000000000000D+00
361  3.6000000000000D+00  0.0000000000000D+00  0.0000000000000D+00
362  3.6100000000000D+00  0.0000000000000D+00  0.0000000000000D+00
363  3.6200000000000D+00  0.0000000000000D+00  0.0000000000000D+00
364  3.6300000000000D+00  0.0000000000000D+00  0.0000000000000D+00
365  3.6400000000000D+00  0.0000000000000D+00  0.0000000000000D+00
366  3.6500000000000D+00  0.0000000000000D+00  0.0000000000000D+00
367  3.6600000000000D+00  0.0000000000000D+00  0.0000000000000D+00
368  3.6700000000000D+00  0.0000000000000D+00  0.0000000000000D+00
369  3.6800000000000D+00  0.0000000000000D+00  0.0000000000000D+00
370  3.6900000000000D+00  0.0000000000000D+00  0.0000000000000D+00
371  3.7000000000000D+00  0.0000000000000D+00  0.0000000000000D+00
372  3.7100000000000D+00  0.0000000000000D+00  0.0000000000000D+00
373  3.7200000000000D+00  0.0000000000000D+00  0.0000000000000D+00
374  3.7300000000000D+00  0.0000000000000D+00  0.0000000000000D+00
375  3.7400000000000D+00  0.0000000000000D+00  0.0000000000000D+00
376  3.7500000000000D+00  0.0000000000000D+00  0.0000000000000D+00
377  3.7600000000000D+00  0.0000000000000D+00  0.0000000000000D+00
378  3.7700000000000D+00  0.0000000000000D+00  0.0000000000000D+00
379  3.7800000000000D+00  0.0000000000000D+00  0.0000000000000D+00
380  3.7900000000000D+00  0.0000000000000D+00  0.0000000000000D+00
381  3.8000000000000D+00  0.0000000000000D+00  0.0000000000000D+00
382  3.8100000000000D+00  0.0000000000000D+00  0.0000000000000D+00
383  3.8200000000000D+00  0.0000000000000D+00  0.0000000000000D+00
384  3.8300000000000D+00  0.0000000000000D+00  0.0000000000000D+00
385  3.8400000000000D+00  0.0000000000000D+00  0.0000000000000D+00
386  3.8500000000000D+00  0.0000000000000D+00  0.0000000000000D+00
387  3.8600000000000D+00  0.0000000000000D+00  0.0000000000000D+00
388  3.8700000000000D+00  0.0000000000000D+00  0.0000000000000D+00
389  3.8800000000000D+00  0.0000000000000D+00  0.0000000000000D+00
390  3.8900000000000D+00  0.0000000000000D+00  0.0000000000000D+00
391  3.9000000000000D+00  0.0000000000000D+00  0.0000000000000D+00
392  3.9100000000000D+00  0.0000000000000D+00  0.0000000000000D+00
393  3.9200000000000D+00  0.0000000000000D+00  0.0000000000000D+00
394  3.9300000000000D+00  0.0000000000000D+00  0.0000000000000D+00
395  3.9400000000000D+00  0.0000000000000D+00  0.0000000000000D+00
396  3.9500000000000D+00  0.0000000000000D+00  0.0000000000000D+00
397  3.9600000000000D+00  0.0000000000000D+00  0.0000000000000D+00
398  3.9700000000000D+00  0.0000000000000D+00  0.0000000000000D+00
399  3.9800000000000D+00  0.0000000000000D+00  0.0000000000000D+00
400  3.9900000000000D+00  0.0000000000000D+00  0.0000000000000D+00
401  4.0000000000000D+00  0.0000000000000D+00  0.0000000000000D+00
402  4.0100000000000D+00  0.0000000000000D+00  0.0000000000000D+00
403  4.0200000000000D+00  0.0000000000000D+00  0.0000000000000D+00
404  4.0300000000000D+00  0.0000000000000D+00  0.0000000000000D+00
405  4.0400000000000D+00  0.0000000000000D+00  0.0000000000000D+00
406  4.0500000000000D+00  0.0000000000000D+00  0.0000000000000D+00
407  4.0600000000000D+00  0.0000000000000D+00  0.0000000000000D+00
408  4.0700000000000D+00  0.0000000000000D+00  0.0000000000000D+00
409  4.0800000000000D+00  0.0000000000000D+00  0.0000000000000D+00
410  4.0900000000000D+00  0.0000000000000D+00  0.0000000000000D+00
411  4.1000000000000D+00  0.0000000000000D+00  0.0000000000000D+00
412  4.1100000000000D+00  0.0000000000000D+00  0.0000000000000D+00
413  4.1200000000000D+00  0.0000000000000D+00  0.0000000000000D+00
414  4.1300000000000D+00  0.0000000000000D+00  0.0000000000000D+00
415  4.1400000000000D+00  0.0000000000000D+00  0.0000000000000D+00
416  4.1500000000000D+00  0.0000000000000D+00  0.0000000000000D+00
417  4.1600000000000D+00  0.0000000000000D+00  0.0000000000000D+00
418  4.1700000000000D+00  0.0000000000000D+00  0.0000000000000D+00
419  4.1800000000000D+00  0.0000000000000D+00  0.0000000000000D+00
420  4.1900000000000D+00  0.0000000000000D+00  0.0000000000000D+00
421  4.2000000000000D+00  0.0000000000000D+00  0.0000000000000D+00
422  4.2100000000000D+00  0.0000000000000D+00  0.0000000000000D+00
423  4.2200000000000D+00  0.0000000000000D+00  0.0000000000000D+00
424  4.2300000000000D+00  0.0000000000000D+00  0.0000000000000D+00
425  4.2400000000000D+00  0.0000000000000D+00  0.0000000000000D+00
426  4.2500000000000D+00  0.0000000000000D+00  0.0000000000000D+00
427  4.2600000000000D+00  0.0000000000000D+00  0.0000000000000D+00
428  4.2700000000000D+00  0.0000000000000D+00  0.0000000000000D+00
429  4.2800000000000D+00  0.0000000000000D+00  0.0000000000000D+00
430  4.2900000000000D+00  0.0000000000000D+00  0.0000000000000D+00
431  4.3000000000000D+00  0.0000000000000D+00  0.0000000000000D+00
432  4.3100000000000D+00  0.0000000000000D+00  0.0000000000000D+00
433  4.3200000000000D+00  0.0000000000000D+00  0.0000000000000D+00
434  4.3300000000000D+00  0.0000000000000D+00  0.0000000000000D+00
435  4.3400000000000D+00  0.0000000000000D+00  0.0000000000000D+00
436  4.3500000000000D+00  0.0000000000000D+00  0.0000000000000D+00
437  4.3600000000000D+00  0.0000000000000D+00  0.0000000000000D+00
438  4.3700000000000D+00  0.0000000000000D+00  0.0000000000000D+00
439  4.3800000000000D+00  0.0000000000000D+00  0.0000000000000D+00
440  4.3900000000000D+00  0.0000000000000D+00  0.0000000000000D+00
441  4.4000000000000D+00  0.0000000000000D+00  0.0000000000000D+00
442  4.4100000000000D+00  0.0000000000000D+00  0.0000000000000D+00
443  4.4200000000000D+00  0.0000000000000D+00  0.0000000000000D+00