<?xml version="1.0" encoding="UTF-8" ?>
<psml version="1.1" energy_unit="hartree" length_unit="bohr"
 uuid="e866e3d0-53a0-11e8-640a-9973a5ff5ced"
 xmlns="http://esl.cecam.org/PSML/ns/1.1">
<provenance creator="ONCVPSP-3.3.0+psml-3.3.0-73 (fully-relativistic)"
 date="2018-05-09">
<annotation action="semilocal-pseudopotential-generation"
 action-cont="projectors-generation" />
<input-file name="oncvpsp-input">
<![CDATA[# atsym z nc nv iexc psfile
Se 34 3 5 -116133 upf
# n l f
1 0 2.0
2 0 2.0
2 1 6.0
3 0 2.0
3 1 6.0
3 2 10.0
4 0 2.0
4 1 4.0
# lmax
2
# l rc ep ncon nbas qcut
0 1.2 0.0 4 7 9.6
1 1.4 0.0 4 7 10.0
2 1.6 0.0 4 7 10.0
# lloc lpopt rc5 dvloc0
4 5 1.2 0.0
# l nproj debl
0 2 1.0
1 2 1.0
2 2 3.5
# icmod fcfact rcfact
3 2.6 1.5
# epsh1 epsh2 depsh
-12.0 12.0 0.02
# rlmax drl
6.0 0.01
 0
]]>
</input-file>
</provenance>
<pseudo-atom-spec atomic-label="Se" atomic-number="34" z-pseudo="24"
 flavor="Hamann&apos;s oncvpsp" relativity="dirac" spin-dft="no"
 core-corrections="yes">
<annotation pseudo-energy="-335.483670286" />
<exchange-correlation>
<annotation oncvpsp-xc-code="-116133" oncvpsp-xc-type="libxc-interface" />
<libxc-info number-of-functionals="2">
<functional name="Perdew, Burke &amp; Ernzerhof SOL (GGA)" type="exchange"
 id="116" />
<functional name="Perdew, Burke &amp; Ernzerhof SOL (GGA)" type="correlation"
 id="133" />
</libxc-info>
</exchange-correlation>
<valence-configuration total-valence-charge="24">
<shell n="3" l="s" occupation="2" />
<shell n="3" l="p" occupation="6" />
<shell n="3" l="d" occupation="10" />
<shell n="4" l="s" occupation="2" />
<shell n="4" l="p" occupation="4" />
</valence-configuration>
</pseudo-atom-spec>
<grid npts="457">
<annotation type="sampled from oncvpsp log grid"
 recipe="r(i:1..N) = r1*exp(a*(i-1)) + r=0; resampled"
 recipe-cont="r1: scale; a: step" scale="0.147058823529E-04"
 step="0.119285708653E-01" delta="0.500000000000E-02" rmax="43.9674944076" />
<grid-data>
  0.000000000000E+00  5.020670286226E-03  1.002839488868E-02  1.504419146530E-02
  2.027130297145E-02  2.542795312469E-02  3.077510917124E-02  3.593736782770E-02
  4.097622089294E-02  4.616757116937E-02  5.139982494270E-02  5.654650141804E-02
  6.220851581082E-02  6.762595753660E-02  7.264345683615E-02  7.803322885668E-02
  8.382289432527E-02  8.897443012385E-02  9.444256583582E-02  1.002467588636E-01
  1.064076624107E-01  1.116079041230E-01  1.170622864982E-01  1.227832296276E-01
  1.287837605838E-01  1.350775430848E-01  1.416789086070E-01  1.468407994265E-01
  1.521907571722E-01  1.577356338231E-01  1.634825310017E-01  1.694388090690E-01
  1.756120965512E-01  1.820102999105E-01  1.886416136706E-01  1.955145309126E-01
  2.026378541519E-01  2.100207066126E-01  2.150914465530E-01  2.202846144386E-01
  2.256031661696E-01  2.310501290136E-01  2.366286033285E-01  2.423417643273E-01
  2.481928638852E-01  2.541852323908E-01  2.603222806417E-01  2.666075017855E-01
  2.730444733086E-01  2.796368590722E-01  2.863884113976E-01  2.933029732024E-01
  3.003844801874E-01  3.076369630770E-01  3.150645499135E-01  3.226714684067E-01
  3.304620483399E-01  3.384407240350E-01  3.466120368761E-01  3.549806378944E-01
  3.635512904158E-01  3.723288727715E-01  3.813183810757E-01  3.905249320684E-01
  3.999537660283E-01  4.096102497553E-01  4.194998796254E-01  4.245338781809E-01
  4.296282847191E-01  4.347838241357E-01  4.400012300253E-01  4.452812447856E-01
  4.506246197230E-01  4.560321151597E-01  4.615045005416E-01  4.670425545481E-01
  4.726470652027E-01  4.783188299851E-01  4.840586559450E-01  4.898673598163E-01
  4.957457681341E-01  5.016947173517E-01  5.077150539599E-01  5.138076346074E-01
  5.199733262227E-01  5.262130061374E-01  5.325275622111E-01  5.389178929576E-01
  5.453849076731E-01  5.519295265652E-01  5.585526808839E-01  5.652553130546E-01
  5.720383768112E-01  5.789028373329E-01  5.858496713809E-01  5.928798674375E-01
  5.999944258468E-01  6.071943589569E-01  6.144806912644E-01  6.218544595596E-01
  6.293167130743E-01  6.368685136312E-01  6.445109357948E-01  6.522450670243E-01
  6.600720078286E-01  6.679928719225E-01  6.760087863856E-01  6.841208918222E-01
  6.923303425241E-01  7.006383066344E-01  7.090459663140E-01  7.175545179098E-01
  7.261651721247E-01  7.348791541902E-01  7.436977040405E-01  7.526220764889E-01
  7.616535414068E-01  7.707933839037E-01  7.800429045105E-01  7.894034193647E-01
  7.988762603970E-01  8.084627755218E-01  8.181643288281E-01  8.279823007740E-01
  8.379180883833E-01  8.479731054439E-01  8.581487827092E-01  8.684465681017E-01
  8.788679269189E-01  8.894143420420E-01  9.000873141465E-01  9.108883619162E-01
  9.218190222592E-01  9.328808505263E-01  9.440754207327E-01  9.554043257814E-01
  9.668691776908E-01  9.784716078231E-01  9.902132671170E-01  1.002095826322E+00
  1.014120976238E+00  1.026290427953E+00  1.038605913089E+00  1.051069184046E+00
  1.063682014254E+00  1.076446198425E+00  1.089363552806E+00  1.102435915440E+00
  1.115665146425E+00  1.129053128182E+00  1.142601765721E+00  1.156312986909E+00
  1.170188742752E+00  1.184231007665E+00  1.198441779757E+00  1.212823081114E+00
  1.227376958088E+00  1.242105481585E+00  1.257010747364E+00  1.272094876332E+00
  1.287360014848E+00  1.302808335026E+00  1.318442035046E+00  1.334263339467E+00
  1.350274499541E+00  1.366477793535E+00  1.382875527058E+00  1.399470033382E+00
  1.416263673783E+00  1.433258837868E+00  1.450457943923E+00  1.467863439250E+00
  1.485477800521E+00  1.503303534127E+00  1.521343176537E+00  1.539599294655E+00
  1.558074486191E+00  1.576771380025E+00  1.595692636585E+00  1.614840948224E+00
  1.634219039603E+00  1.653829668078E+00  1.673675624095E+00  1.693759731584E+00
  1.714084848363E+00  1.734653866544E+00  1.755469712942E+00  1.776535349498E+00
  1.797853773692E+00  1.819428018976E+00  1.841261155204E+00  1.863356289066E+00
  1.885716564535E+00  1.908345163309E+00  1.931245305269E+00  1.954420248932E+00
  1.977873291919E+00  2.001607771422E+00  2.025627064680E+00  2.049934589456E+00
  2.074533804529E+00  2.099428210183E+00  2.124621348706E+00  2.150116804890E+00
  2.175918206549E+00  2.202029225027E+00  2.228453575728E+00  2.255195018636E+00
  2.282257358860E+00  2.309644447166E+00  2.337360180532E+00  2.365408502699E+00
  2.393793404731E+00  2.422518925588E+00  2.451589152695E+00  2.481008222527E+00
  2.510780321198E+00  2.540909685052E+00  2.571400601273E+00  2.602257408488E+00
  2.633484497390E+00  2.665086311359E+00  2.697067347095E+00  2.729432155260E+00
  2.762185341123E+00  2.795331565217E+00  2.828875543999E+00  2.862822050527E+00
  2.897175915133E+00  2.931942026115E+00  2.967125330428E+00  3.002730834394E+00
  3.038763604406E+00  3.075228767659E+00  3.112131512871E+00  3.149477091026E+00
  3.187270816118E+00  3.225518065911E+00  3.264224282702E+00  3.303394974095E+00
  3.343035713784E+00  3.383152142349E+00  3.423749968057E+00  3.464834967674E+00
  3.506412987286E+00  3.548489943134E+00  3.591071822451E+00  3.634164684321E+00
  3.677774660532E+00  3.721907956459E+00  3.766570851936E+00  3.811769702160E+00
  3.857510938585E+00  3.903801069848E+00  3.950646682687E+00  3.998054442879E+00
  4.046031096193E+00  4.094583469348E+00  4.143718470980E+00  4.193443092632E+00
  4.243764409743E+00  4.294689582660E+00  4.346225857652E+00  4.398380567944E+00
  4.451161134759E+00  4.504575068376E+00  4.558629969197E+00  4.613333528827E+00
  4.668693531173E+00  4.724717853547E+00  4.781414467790E+00  4.838791441403E+00
  4.896856938700E+00  4.955619221965E+00  5.015086652628E+00  5.075267692460E+00
  5.136170904769E+00  5.197804955626E+00  5.260178615094E+00  5.323300758475E+00
  5.387180367577E+00  5.451826531988E+00  5.517248450372E+00  5.583455431776E+00
  5.650456896957E+00  5.718262379721E+00  5.786881528277E+00  5.856324106617E+00
  5.926599995896E+00  5.997719195847E+00  6.069691826197E+00  6.142528128111E+00
  6.216238465649E+00  6.290833327237E+00  6.366323327163E+00  6.442719207089E+00
  6.520031837574E+00  6.598272219625E+00  6.677451486261E+00  6.757580904096E+00
  6.838671874945E+00  6.920735937445E+00  7.003784768694E+00  7.087830185918E+00
  7.172884148149E+00  7.258958757927E+00  7.346066263022E+00  7.434219058178E+00
  7.523429686877E+00  7.613710843119E+00  7.705075373236E+00  7.797536277715E+00
  7.891106713048E+00  7.985799993604E+00  8.081629593528E+00  8.178609148650E+00
  8.276752458434E+00  8.376073487935E+00  8.476586369790E+00  8.578305406228E+00
  8.681245071102E+00  8.785420011956E+00  8.890845052099E+00  8.997535192724E+00
  9.105505615037E+00  9.214771682418E+00  9.325348942607E+00  9.437253129918E+00
  9.550500167477E+00  9.665106169487E+00  9.781087443520E+00  9.898460492843E+00
  1.001724201876E+01  1.013744892298E+01  1.025909831006E+01  1.038220748978E+01
  1.050679397966E+01  1.063287550741E+01  1.076047001350E+01  1.088959565366E+01
  1.102027080151E+01  1.115251405112E+01  1.128634421974E+01  1.142178035037E+01
  1.155884171458E+01  1.169754781515E+01  1.183791838894E+01  1.197997340960E+01
  1.212373309052E+01  1.226921788760E+01  1.241644850226E+01  1.256544588428E+01
  1.271623123489E+01  1.286882600971E+01  1.302325192183E+01  1.317953094489E+01
  1.333768531623E+01  1.349773754003E+01  1.365971039051E+01  1.382362691519E+01
  1.398951043817E+01  1.415738456343E+01  1.432727317819E+01  1.449920045633E+01
  1.467319086181E+01  1.484926915215E+01  1.502746038197E+01  1.520778990656E+01
  1.539028338544E+01  1.557496678606E+01  1.576186638750E+01  1.595100878415E+01
  1.614242088956E+01  1.633612994023E+01  1.653216349951E+01  1.673054946151E+01
  1.693131605504E+01  1.713449184771E+01  1.734010574988E+01  1.754818701888E+01
  1.775876526310E+01  1.797187044626E+01  1.818753289162E+01  1.840578328631E+01
  1.862665268575E+01  1.885017251798E+01  1.907637458820E+01  1.930529108325E+01
  1.953695457625E+01  1.977139803117E+01  2.000865480754E+01  2.024875866523E+01
  2.049174376921E+01  2.073764469445E+01  2.098649643078E+01  2.123833438795E+01
  2.149319440060E+01  2.175111273341E+01  2.201212608621E+01  2.227627159925E+01
  2.254358685844E+01  2.281410990074E+01  2.308787921955E+01  2.336493377018E+01
  2.364531297542E+01  2.392905673113E+01  2.421620541190E+01  2.450679987685E+01
  2.480088147537E+01  2.509849205307E+01  2.539967395771E+01  2.570447004520E+01
  2.601292368574E+01  2.632507876997E+01  2.664097971521E+01  2.696067147179E+01
  2.728419952946E+01  2.761160992381E+01  2.794294924290E+01  2.827826463381E+01
  2.861760380942E+01  2.896101505513E+01  2.930854723579E+01  2.966024980262E+01
  3.001617280025E+01  3.037636687385E+01  3.074088327634E+01  3.110977387566E+01
  3.148309116216E+01  3.186088825611E+01  3.224321891518E+01  3.263013754217E+01
  3.302169919267E+01  3.341795958298E+01  3.381897509798E+01  3.422480279916E+01
  3.463550043275E+01  3.505112643794E+01  3.547173995519E+01  3.589740083466E+01
  3.632816964467E+01  3.676410768041E+01  3.720527697257E+01  3.765174029624E+01
  3.810356117980E+01  3.856080391396E+01  3.902353356092E+01  3.949181596366E+01
  3.996571775522E+01  4.044530636828E+01  4.093065004470E+01  4.142181784524E+01
  4.191887965938E+01  4.242190621529E+01  4.293096908988E+01  4.344614071895E+01
  4.396749440758E+01
</grid-data>
</grid>
<valence-charge total-charge="24" is-unscreening-charge="yes"
 rescaled-to-z-pseudo="no">
<radfunc>
<data npts="457">
  4.900380009879E+01  4.901769204772E+01  4.905920974139E+01  4.912844271157E+01
  4.922995616257E+01  4.935935380668E+01  4.952405850020E+01  4.971236895301E+01
  4.992373269112E+01  5.016971901038E+01  5.044634447519E+01  5.074624226618E+01
  5.110760519472E+01  5.148374469398E+01  5.185820157157E+01  5.228791090579E+01
  5.278059414634E+01  5.324548231168E+01  5.376562657514E+01  5.434705656771E+01
  5.499630885618E+01  5.556925749404E+01  5.619393840952E+01  5.687436622693E+01
  5.761471954996E+01  5.841930983665E+01  5.929253806053E+01  5.999516994496E+01
  6.074076188791E+01  6.153113460040E+01  6.236804506362E+01  6.325315418963E+01
  6.418798861116E+01  6.517389583215E+01  6.621199191401E+01  6.730310082360E+01
  6.844768453428E+01  6.964576295648E+01  7.047397267706E+01  7.132543816849E+01
  7.219971444164E+01  7.309620000192E+01  7.401411957137E+01  7.495250561906E+01
  7.591017869997E+01  7.688572662159E+01  7.787748248002E+01  7.888350163508E+01
  7.990153772641E+01  8.092901787187E+01  8.196301723415E+01  8.300023319467E+01
  8.403695943360E+01  8.506906028353E+01  8.609194580124E+01  8.710054808790E+01
  8.808929948251E+01  8.905211335612E+01  8.998236834466E+01  9.087289697459E+01
  9.171597975564E+01  9.250334593669E+01  9.322618223941E+01  9.387515099577E+01
  9.444041921262E+01  9.491170016339E+01  9.527830915207E+01  9.541893113989E+01
  9.552923510031E+01  9.560780825071E+01  9.565322956004E+01  9.566407358636E+01
  9.563891463959E+01  9.557633127681E+01  9.547491113580E+01  9.533325611080E+01
  9.514998787240E+01  9.492375373104E+01  9.465323284115E+01  9.433714273994E+01
  9.397424621173E+01  9.356335846517E+01  9.310335460699E+01  9.259317739168E+01
  9.203184522236E+01  9.141846037316E+01  9.075221739872E+01  9.003241169112E+01
  8.925844813941E+01  8.842984984096E+01  8.754626680879E+01  8.660748461261E+01
  8.561343288637E+01  8.456419362874E+01  8.346000921792E+01  8.230129005692E+01
  8.108862176014E+01  7.982277178837E+01  7.850469543476E+01  7.713554106182E+01
  7.571665448669E+01  7.424958241123E+01  7.273607479285E+01  7.117808605335E+01
  6.957777502572E+01  6.793750354280E+01  6.625983357755E+01  6.454752285247E+01
  6.280351884506E+01  6.103095112786E+01  5.923312199508E+01  5.741349534353E+01
  5.557568379325E+01  5.372343405266E+01  5.186061055482E+01  4.999117741445E+01
  4.811917878002E+01  4.624871768139E+01  4.438393349989E+01  4.252897821547E+01
  4.068799161248E+01  3.886507565282E+01  3.706426825076E+01  3.528951670793E+01
  3.354465108896E+01  3.183335783682E+01  3.015915394240E+01  2.852536199356E+01
  2.693508643496E+01  2.539119137013E+01  2.389628023197E+01  2.245267763533E+01
  2.106241370674E+01  1.972721116055E+01  1.844847535811E+01  1.722728754736E+01
  1.606440143510E+01  1.496024319278E+01  1.391491494157E+01  1.292820170284E+01
  1.199958173885E+01  1.112824014610E+01  1.031308550193E+01  9.552769306064E+00
  8.845707903407E+00  8.190106525793E+00  7.583985048456E+00  7.025205024950E+00
  6.511497542093E+00  6.040491425962E+00  5.609741331280E+00  5.216755260151E+00
  4.859021081543E+00  4.534031659691E+00  4.239308246283E+00  3.972421846422E+00
  3.731012450935E+00  3.512806256099E+00  3.315630349035E+00  3.137423871145E+00
  2.976246600307E+00  2.830284972140E+00  2.697855734671E+00  2.577407403787E+00
  2.467519744941E+00  2.366901523260E+00  2.274386778189E+00  2.188929881247E+00
  2.109599628853E+00  2.035572271367E+00  1.966122810080E+00  1.900615863721E+00
  1.838499093011E+00  1.779297557274E+00  1.722607318600E+00  1.668089416945E+00
  1.615463896009E+00  1.564503938514E+00  1.515030100582E+00  1.466904639114E+00
  1.420024661411E+00  1.374310699381E+00  1.329694639482E+00  1.286117161982E+00
  1.243528333869E+00  1.201885923113E+00  1.161154648162E+00  1.121305354275E+00
  1.082314258805E+00  1.044162251475E+00  1.006834248219E+00  9.703185960683E-01
  9.346065273740E-01  8.996916612644E-01  8.655695502134E-01  8.322372695938E-01
  7.996930480610E-01  7.679359366054E-01  7.369655141174E-01  7.067816273296E-01
  6.773841629479E-01  6.487728500094E-01  6.209470902688E-01  5.939058146709E-01
  5.676473639273E-01  5.421693912902E-01  5.174687856721E-01  4.935416133428E-01
  4.703830764229E-01  4.479874866626E-01  4.263482528090E-01  4.054578801358E-01
  3.853079807093E-01  3.658892930594E-01  3.471917100004E-01  3.292043134288E-01
  3.119154150013E-01  2.953126016774E-01  2.793827851831E-01  2.641122545320E-01
  2.494867308095E-01  2.354914234971E-01  2.221110876839E-01  2.093300815751E-01
  1.971324237736E-01  1.855018498673E-01  1.744218679110E-01  1.638758124577E-01
  1.538468968206E-01  1.443182633259E-01  1.352730313323E-01  1.266943428538E-01
  1.185654056549E-01  1.108695337227E-01  1.035901850541E-01  9.671099672596E-02
  9.021581724383E-02  8.408873618667E-02  7.831411118963E-02  7.287659232207E-02
  6.776114393566E-02  6.295306406885E-02  5.843800150483E-02  5.420197058665E-02
  5.023136389870E-02  4.651296292562E-02  4.303394680065E-02  3.978189925349E-02
  3.674481386525E-02  3.391109773386E-02  3.126957364829E-02  2.880948086521E-02
  2.652047457570E-02  2.439262414541E-02  2.241641020622E-02  2.058272067426E-02
  1.888284576571E-02  1.730847207968E-02  1.585167581614E-02  1.450491519614E-02
  1.326102215154E-02  1.211319335167E-02  1.105498063506E-02  1.008028091491E-02
  9.183325627508E-03  8.358669792966E-03  7.601180757414E-03  6.906026685221E-03
  6.268664868385E-03  5.684829918489E-03  5.150521904176E-03  4.661994494082E-03
  4.215743161767E-03  3.808493505227E-03  3.437189729383E-03  3.098983335379E-03
  2.791222055906E-03  2.511439070927E-03  2.257342533422E-03  2.026805430006E-03
  1.817855796691E-03  1.628667305568E-03  1.457550234029E-03  1.302942824154E-03
  1.163403036279E-03  1.037600697396E-03  9.243100420807E-04  8.224026409972E-04
  7.308407097213E-04  6.486707887190E-04  5.750177836912E-04  5.090793542290E-04
  4.501206377511E-04  3.974692950007E-04  3.505108629444E-04  3.086844006995E-04
  2.714784140996E-04  2.384270446536E-04  2.091065089308E-04  1.831317747897E-04
  1.601534613312E-04  1.398549499715E-04  1.219496945816E-04  1.061787192069E-04
  9.230829244404E-05  8.012776811438E-05  6.944758240628E-05  6.009739817670E-05
  5.192438758818E-05  4.479164471334E-05  3.857672016792E-05  3.317027023538E-05
  2.847481331703E-05  2.440358689160E-05  2.087949849967E-05  1.783416457661E-05
  1.520703125304E-05  1.294457152292E-05  1.099955344991E-05  9.330374343032E-06
  7.900456085515E-06  6.677697046804E-06  5.633976247255E-06  4.744705679688E-06
  3.988426920828E-06  3.346448389610E-06  2.802519827767E-06  2.342540791110E-06
  1.954300146931E-06  1.627243773846E-06  1.352267854513E-06  1.121535338938E-06
  9.283133357935E-07  7.668293614082E-07  6.321445401776E-07  5.200420062268E-07
  4.269289038519E-07  3.497505236305E-07  2.859152420624E-07  2.332290552439E-07
  1.898386115090E-07  1.541817543479E-07  1.249446854576E-07  1.010249487390E-07
  8.149951972933E-08  6.559736165733E-08  5.267587938056E-08  4.220076626064E-08
  3.372879692398E-08  2.689317121476E-08  2.139106184595E-08  1.697306066466E-08
  1.343425643140E-08  1.060671092297E-08  8.353130345350E-09  6.561555812351E-09
  5.140920316915E-09  4.017340488765E-09  3.131029767662E-09  2.433735683492E-09
  1.886617960186E-09  1.458496370007E-09  1.124407860076E-09  8.644216387189E-10
  6.626688133699E-10  5.065499667100E-10  3.860898805926E-10  2.934135915744E-10
  2.223221976491E-10  1.679504312999E-10  1.264910562560E-10  9.497371123092E-11
  7.108798105707E-11  5.304228322460E-11  3.945166759787E-11  2.924888392857E-11
  2.161411462833E-11  1.591963265311E-11  1.168635511784E-11  8.549847077914E-12
  6.233807819084E-12  4.529461858177E-12  3.279593788144E-12  2.366222843107E-12
  1.701120306869E-12  1.218539586409E-12  8.696623708137E-13  6.183709784662E-13
  4.380418710476E-13  3.091225888426E-13  2.173074875352E-13  1.521694494917E-13
  1.061374941643E-13  7.373577937367E-14  5.101936582183E-14  3.515751497906E-14
  2.412716863705E-14  1.648838447746E-14  1.122048498393E-14  7.602998021861E-15
  5.129506147010E-15  3.445569929338E-15  2.304191457830E-15  1.533998380629E-15
  1.016615364680E-15  6.706410984369E-16  4.403534411451E-16  2.877836188493E-16
  1.871800654363E-16  1.211593848731E-16  7.804286836028E-17  5.002216559383E-17
  3.190207107008E-17  2.024305097382E-17  1.277929277399E-17  8.025717189157E-18
  5.013933637918E-18  2.645474030938E-18  1.638362477497E-18  0.000000000000E+00
  0.000000000000E+00  0.000000000000E+00  0.000000000000E+00  0.000000000000E+00
  0.000000000000E+00  0.000000000000E+00  0.000000000000E+00  0.000000000000E+00
  0.000000000000E+00  0.000000000000E+00  0.000000000000E+00  0.000000000000E+00
  0.000000000000E+00  0.000000000000E+00  0.000000000000E+00  0.000000000000E+00
  0.000000000000E+00  0.000000000000E+00  0.000000000000E+00  0.000000000000E+00
  0.000000000000E+00  0.000000000000E+00  0.000000000000E+00  0.000000000000E+00
  0.000000000000E+00  0.000000000000E+00  0.000000000000E+00  0.000000000000E+00
  0.000000000000E+00  0.000000000000E+00  0.000000000000E+00  0.000000000000E+00
  0.000000000000E+00  0.000000000000E+00  0.000000000000E+00  0.000000000000E+00
  0.000000000000E+00
</data>
</radfunc>
</valence-charge>
<pseudocore-charge matching-radius="0.311328606634"
 number-of-continuous-derivatives="4">
<annotation model-charge-form="Teter function with specified parameters" />
<radfunc>
<data npts="291">
  2.333286582355E+02  2.332434638032E+02  2.329889323100E+02  2.325647641275E+02
  2.319434493934E+02  2.311525468768E+02  2.301475871942E+02  2.290009889237E+02
  2.277170609040E+02  2.262268598258E+02  2.245562308065E+02  2.227512448732E+02
  2.205848622395E+02  2.183397890441E+02  2.161147626872E+02  2.135736956754E+02
  2.106763295816E+02  2.079581419184E+02  2.049349140159E+02  2.015779564691E+02
  1.978573639785E+02  1.945984368843E+02  1.910712280569E+02  1.872599573519E+02
  1.831492471140E+02  1.787244744328E+02  1.739721940054E+02  1.701858986554E+02
  1.662045543217E+02  1.620248692010E+02  1.576445907805E+02  1.530626912643E+02
  1.482795666487E+02  1.432972477350E+02  1.381196205248E+02  1.327526524456E+02
  1.272046196936E+02  1.214863296626E+02  1.175861209182E+02  1.136209344283E+02
  1.095961019994E+02  1.055175744141E+02  1.013919352320E+02  9.722640948666E+01
  9.302886640283E+01  8.880781521943E+01  8.457239317641E+01  8.033234471641E+01
  7.609799096456E+01  7.188018859030E+01  6.769027722621E+01  6.354001472724E+01
  5.944149970258E+01  5.540708094834E+01  5.144925365405E+01  4.758054255428E+01
  4.381337254881E+01  4.015992772062E+01  3.663200013707E+01  3.324083032036E+01
  2.999694180768E+01  2.690997277660E+01  2.398850826696E+01  2.123991706404E+01
  1.867019778964E+01  1.628383914527E+01  1.408369952598E+01  1.305388517331E+01
  1.207091133676E+01  1.113463908163E+01  1.024481525263E+01  9.401072397033E+00
  8.602929331253E+00  7.849792375750E+00  7.140957278353E+00  6.475611840677E+00
  5.852839256356E+00  5.271622163123E+00  4.730847403847E+00  4.229311483810E+00
  3.765726703659E+00  3.338727939042E+00  2.946880029371E+00  2.588685729422E+00
  2.262594168799E+00  1.967009755686E+00  1.700301453066E+00  1.460812347748E+00
  1.246869425375E+00  1.056793458210E+00  8.889089071092E-01  7.415537348899E-01
  6.130890254327E-01  5.019083014890E-01  4.064464344624E-01  3.251880414955E-01
  2.566752691318E-01  1.995148686976E-01  1.523844763831E-01  1.140380207767E-01
  8.331019225495E-02  5.911992203068E-02  4.047283363875E-02  2.646264596300E-02
  1.627152429110E-02  9.169393988461E-03  4.512249820798E-03  1.739512297723E-03
  3.705001971641E-04  1.051797764840E-07  2.937696252179E-04  9.818820375643E-04
  1.853715120173E-03  2.751039499864E-03  3.561550737957E-03  4.212248434166E-03
  4.662903740035E-03  4.899745396617E-03  4.929484567944E-03  4.773785463040E-03
  4.464272367990E-03  4.038144723629E-03  3.534450887117E-03  2.991048919803E-03
  2.442259948371E-03  1.917197207330E-03  1.438732665529E-03  1.023044025832E-03
  6.796686620380E-04  4.119784114172E-04  2.179806183554E-04  9.134678285850E-05
  2.257075012100E-05  1.634917507609E-07  1.180084039462E-05  4.535347637763E-05
  8.974424310185E-05  1.355955277967E-04  1.756479040473E-04  2.049493537640E-04
  2.208310475140E-04  2.226998372801E-04  2.116884501400E-04  1.902112502523E-04
  1.614760385789E-04  1.290006905913E-04  9.617783254012E-05  6.592188265404E-05
  4.042155719592E-05  2.100847576617E-05  8.140002195920E-06  1.483115513580E-06
  7.697553336006E-08  2.545745174421E-06  7.330644990382E-06  1.291124974639E-05
  1.799039833237E-05  2.162411273943E-05  2.328664841792E-05  2.287008182203E-05
  2.062649133038E-05  1.706772111611E-05  1.284209873690E-05  8.608834019849E-06
  4.929117909656E-06  2.188563542139E-06  5.593698682519E-07  3.490601009378E-09
  0.000000000000E+00  0.000000000000E+00  0.000000000000E+00  0.000000000000E+00
  0.000000000000E+00  0.000000000000E+00  0.000000000000E+00  0.000000000000E+00
  0.000000000000E+00  0.000000000000E+00  0.000000000000E+00  0.000000000000E+00
  0.000000000000E+00  0.000000000000E+00  0.000000000000E+00  0.000000000000E+00
  0.000000000000E+00  0.000000000000E+00  0.000000000000E+00  0.000000000000E+00
  0.000000000000E+00  0.000000000000E+00  0.000000000000E+00  0.000000000000E+00
  0.000000000000E+00  0.000000000000E+00  0.000000000000E+00  0.000000000000E+00
  0.000000000000E+00  0.000000000000E+00  0.000000000000E+00  0.000000000000E+00
  0.000000000000E+00  0.000000000000E+00  0.000000000000E+00  0.000000000000E+00
  0.000000000000E+00  0.000000000000E+00  0.000000000000E+00  0.000000000000E+00
  0.000000000000E+00  0.000000000000E+00  0.000000000000E+00  0.000000000000E+00
  0.000000000000E+00  0.000000000000E+00  0.000000000000E+00  0.000000000000E+00
  0.000000000000E+00  0.000000000000E+00  0.000000000000E+00  0.000000000000E+00
  0.000000000000E+00  0.000000000000E+00  0.000000000000E+00  0.000000000000E+00
  0.000000000000E+00  0.000000000000E+00  0.000000000000E+00  0.000000000000E+00
  0.000000000000E+00  0.000000000000E+00  0.000000000000E+00  0.000000000000E+00
  0.000000000000E+00  0.000000000000E+00  0.000000000000E+00  0.000000000000E+00
  0.000000000000E+00  0.000000000000E+00  0.000000000000E+00  0.000000000000E+00
  0.000000000000E+00  0.000000000000E+00  0.000000000000E+00  0.000000000000E+00
  0.000000000000E+00  0.000000000000E+00  0.000000000000E+00  0.000000000000E+00
  0.000000000000E+00  0.000000000000E+00  0.000000000000E+00  0.000000000000E+00
  0.000000000000E+00  0.000000000000E+00  0.000000000000E+00  0.000000000000E+00
  0.000000000000E+00  0.000000000000E+00  0.000000000000E+00  0.000000000000E+00
  0.000000000000E+00  0.000000000000E+00  0.000000000000E+00  0.000000000000E+00
  0.000000000000E+00  0.000000000000E+00  0.000000000000E+00  0.000000000000E+00
  0.000000000000E+00  0.000000000000E+00  0.000000000000E+00  0.000000000000E+00
  0.000000000000E+00  0.000000000000E+00  0.000000000000E+00  0.000000000000E+00
  0.000000000000E+00  0.000000000000E+00  0.000000000000E+00  0.000000000000E+00
  0.000000000000E+00  0.000000000000E+00  0.000000000000E+00  0.000000000000E+00
  0.000000000000E+00  0.000000000000E+00  0.000000000000E+00  0.000000000000E+00
  0.000000000000E+00  0.000000000000E+00  0.000000000000E+00
</data>
</radfunc>
</pseudocore-charge>
<semilocal-potentials set="lj">
<slps n="3" l="s" j="0.5" rc="1.21282308111" eref="-7.82788984482">
<radfunc>
<data npts="291">
 -4.499237074133E+01 -4.499204181867E+01 -4.499105857615E+01 -4.498941838017E+01
 -4.498701207714E+01 -4.498394237937E+01 -4.498003097376E+01 -4.497555299929E+01
 -4.497051874372E+01 -4.496464836157E+01 -4.495803097472E+01 -4.495083656812E+01
 -4.494213741192E+01 -4.493304468980E+01 -4.492395134244E+01 -4.491346165181E+01
 -4.490135746524E+01 -4.488985484554E+01 -4.487688460863E+01 -4.486225160114E+01
 -4.484573132874E+01 -4.483098329641E+01 -4.481471046547E+01 -4.479674126223E+01
 -4.477688097823E+01 -4.475490784551E+01 -4.473056834732E+01 -4.471058740741E+01
 -4.468897406086E+01 -4.466557394553E+01 -4.464021484743E+01 -4.461270430623E+01
 -4.458282689273E+01 -4.455034111844E+01 -4.451497593493E+01 -4.447642677892E+01
 -4.443435111948E+01 -4.438836346803E+01 -4.435531956033E+01 -4.432020340573E+01
 -4.428286153446E+01 -4.424312791012E+01 -4.420082297874E+01 -4.415575269196E+01
 -4.410770752156E+01 -4.405646148955E+01 -4.400177124717E+01 -4.394337524713E+01
 -4.388099306586E+01 -4.381432494658E+01 -4.374305164692E+01 -4.366683468535E+01
 -4.358531708395E+01 -4.349812469579E+01 -4.340486817651E+01 -4.330514560450E+01
 -4.319854566727E+01 -4.308465121488E+01 -4.296304284573E+01 -4.283330206430E+01
 -4.269501347587E+01 -4.254776551229E+01 -4.239114935584E+01 -4.222475605087E+01
 -4.204817221155E+01 -4.186097513404E+01 -4.166272835746E+01 -4.155932039936E+01
 -4.145297867818E+01 -4.134364378692E+01 -4.123125529257E+01 -4.111575183161E+01
 -4.099707123178E+01 -4.087515065457E+01 -4.074992675256E+01 -4.062133583663E+01
 -4.048931404901E+01 -4.035379753990E+01 -4.021472264672E+01 -4.007202607699E+01
 -3.992564509687E+01 -3.977551772862E+01 -3.962158296064E+01 -3.946378097365E+01
 -3.930205338599E+01 -3.913634351997E+01 -3.896659668952E+01 -3.879276050776E+01
 -3.861478521103E+01 -3.843262399416E+01 -3.824623335029E+01 -3.805557340702E+01
 -3.786060825066E+01 -3.766130622988E+01 -3.745764023121E+01 -3.724958792029E+01
 -3.703713194473E+01 -3.682026009705E+01 -3.659896543889E+01 -3.637324639044E+01
 -3.614310679134E+01 -3.590855594169E+01 -3.566960863283E+01 -3.542628517842E+01
 -3.517861145641E+01 -3.492661897134E+01 -3.467034494544E+01 -3.440983244460E+01
 -3.414513054359E+01 -3.387629453208E+01 -3.360338616078E+01 -3.332647392491E+01
 -3.304563337995E+01 -3.276094748292E+01 -3.247250695102E+01 -3.218041062820E+01
 -3.188476584929E+01 -3.158568879054E+01 -3.128330479489E+01 -3.097774865973E+01
 -3.066916487450E+01 -3.035770779529E+01 -3.004354174325E+01 -2.972684101383E+01
 -2.940778978426E+01 -2.908658190772E+01 -2.876342058443E+01 -2.843851790356E+01
 -2.811209425436E+01 -2.778437761271E+01 -2.745560271957E+01 -2.712601018149E+01
 -2.679584554160E+01 -2.646535839062E+01 -2.613480161337E+01 -2.580443089288E+01
 -2.547450462229E+01 -2.514528439834E+01 -2.481703628802E+01 -2.449003306594E+01
 -2.416455761188E+01 -2.384090763361E+01 -2.351940184021E+01 -2.320038763945E+01
 -2.288425037705E+01 -2.257142408569E+01 -2.226240368162E+01 -2.195775855231E+01
 -2.165814754417E+01 -2.136433551394E+01 -2.107721189331E+01 -2.079781217748E+01