<?xml version="1.0" encoding="UTF-8" ?>
<psml version="1.1" energy_unit="hartree" length_unit="bohr"
 uuid="e612a580-539e-11e8-5c84-4199beffe45d"
 xmlns="http://esl.cecam.org/PSML/ns/1.1">
<provenance creator="ONCVPSP-3.3.0+psml-3.3.0-73 (fully-relativistic)"
 date="2018-05-09">
<annotation action="semilocal-pseudopotential-generation"
 action-cont="projectors-generation" />
<input-file name="oncvpsp-input">
<![CDATA[# atsym z nc nv iexc psfile
Se 34 5 3 -116133 upf
# n l f
1 0 2.0
2 0 2.0
2 1 6.0
3 0 2.0
3 1 6.0
3 2 10.0
4 0 2.0
4 1 4.0
# lmax
2
# l rc ep ncon nbas qcut
0 1.8 0.0 4 8 5.4
1 1.5 0.0 4 8 7.8
2 1.9 0.0 4 9 9.2
# lloc lpopt rc5 dvloc0
4 5 1.5 0.0
# l nproj debl
0 2 4.5
1 2 4.5
2 2 2.0
# icmod fcfact
3 5 1.4
# epsh1 epsh2 depsh
-12.0 12.0 0.02
# rlmax drl
6.0 0.01
 0
]]>
</input-file>
</provenance>
<pseudo-atom-spec atomic-label="Se" atomic-number="34" z-pseudo="16"
 flavor="Hamann&apos;s oncvpsp" relativity="dirac" spin-dft="no"
 core-corrections="yes">
<annotation pseudo-energy="-111.242101244" />
<exchange-correlation>
<annotation oncvpsp-xc-code="-116133" oncvpsp-xc-type="libxc-interface" />
<libxc-info number-of-functionals="2">
<functional name="Perdew, Burke &amp; Ernzerhof SOL (GGA)" type="exchange"
 id="116" />
<functional name="Perdew, Burke &amp; Ernzerhof SOL (GGA)" type="correlation"
 id="133" />
</libxc-info>
</exchange-correlation>
<valence-configuration total-valence-charge="16">
<shell n="3" l="d" occupation="10" />
<shell n="4" l="s" occupation="2" />
<shell n="4" l="p" occupation="4" />
</valence-configuration>
</pseudo-atom-spec>
<grid npts="457">
<annotation type="sampled from oncvpsp log grid"
 recipe="r(i:1..N) = r1*exp(a*(i-1)) + r=0; resampled"
 recipe-cont="r1: scale; a: step" scale="0.147058823529E-04"
 step="0.119285708653E-01" delta="0.500000000000E-02" rmax="43.9674944076" />
<grid-data>
  0.000000000000E+00  5.020670286226E-03  1.002839488868E-02  1.504419146530E-02
  2.027130297145E-02  2.542795312469E-02  3.077510917124E-02  3.593736782770E-02
  4.097622089294E-02  4.616757116937E-02  5.139982494270E-02  5.654650141804E-02
  6.220851581082E-02  6.762595753660E-02  7.264345683615E-02  7.803322885668E-02
  8.382289432527E-02  8.897443012385E-02  9.444256583582E-02  1.002467588636E-01
  1.064076624107E-01  1.116079041230E-01  1.170622864982E-01  1.227832296276E-01
  1.287837605838E-01  1.350775430848E-01  1.416789086070E-01  1.468407994265E-01
  1.521907571722E-01  1.577356338231E-01  1.634825310017E-01  1.694388090690E-01
  1.756120965512E-01  1.820102999105E-01  1.886416136706E-01  1.955145309126E-01
  2.026378541519E-01  2.100207066126E-01  2.150914465530E-01  2.202846144386E-01
  2.256031661696E-01  2.310501290136E-01  2.366286033285E-01  2.423417643273E-01
  2.481928638852E-01  2.541852323908E-01  2.603222806417E-01  2.666075017855E-01
  2.730444733086E-01  2.796368590722E-01  2.863884113976E-01  2.933029732024E-01
  3.003844801874E-01  3.076369630770E-01  3.150645499135E-01  3.226714684067E-01
  3.304620483399E-01  3.384407240350E-01  3.466120368761E-01  3.549806378944E-01
  3.635512904158E-01  3.723288727715E-01  3.813183810757E-01  3.905249320684E-01
  3.999537660283E-01  4.096102497553E-01  4.194998796254E-01  4.245338781809E-01
  4.296282847191E-01  4.347838241357E-01  4.400012300253E-01  4.452812447856E-01
  4.506246197230E-01  4.560321151597E-01  4.615045005416E-01  4.670425545481E-01
  4.726470652027E-01  4.783188299851E-01  4.840586559450E-01  4.898673598163E-01
  4.957457681341E-01  5.016947173517E-01  5.077150539599E-01  5.138076346074E-01
  5.199733262227E-01  5.262130061374E-01  5.325275622111E-01  5.389178929576E-01
  5.453849076731E-01  5.519295265652E-01  5.585526808839E-01  5.652553130546E-01
  5.720383768112E-01  5.789028373329E-01  5.858496713809E-01  5.928798674375E-01
  5.999944258468E-01  6.071943589569E-01  6.144806912644E-01  6.218544595596E-01
  6.293167130743E-01  6.368685136312E-01  6.445109357948E-01  6.522450670243E-01
  6.600720078286E-01  6.679928719225E-01  6.760087863856E-01  6.841208918222E-01
  6.923303425241E-01  7.006383066344E-01  7.090459663140E-01  7.175545179098E-01
  7.261651721247E-01  7.348791541902E-01  7.436977040405E-01  7.526220764889E-01
  7.616535414068E-01  7.707933839037E-01  7.800429045105E-01  7.894034193647E-01
  7.988762603970E-01  8.084627755218E-01  8.181643288281E-01  8.279823007740E-01
  8.379180883833E-01  8.479731054439E-01  8.581487827092E-01  8.684465681017E-01
  8.788679269189E-01  8.894143420420E-01  9.000873141465E-01  9.108883619162E-01
  9.218190222592E-01  9.328808505263E-01  9.440754207327E-01  9.554043257814E-01
  9.668691776908E-01  9.784716078231E-01  9.902132671170E-01  1.002095826322E+00
  1.014120976238E+00  1.026290427953E+00  1.038605913089E+00  1.051069184046E+00
  1.063682014254E+00  1.076446198425E+00  1.089363552806E+00  1.102435915440E+00
  1.115665146425E+00  1.129053128182E+00  1.142601765721E+00  1.156312986909E+00
  1.170188742752E+00  1.184231007665E+00  1.198441779757E+00  1.212823081114E+00
  1.227376958088E+00  1.242105481585E+00  1.257010747364E+00  1.272094876332E+00
  1.287360014848E+00  1.302808335026E+00  1.318442035046E+00  1.334263339467E+00
  1.350274499541E+00  1.366477793535E+00  1.382875527058E+00  1.399470033382E+00
  1.416263673783E+00  1.433258837868E+00  1.450457943923E+00  1.467863439250E+00
  1.485477800521E+00  1.503303534127E+00  1.521343176537E+00  1.539599294655E+00
  1.558074486191E+00  1.576771380025E+00  1.595692636585E+00  1.614840948224E+00
  1.634219039603E+00  1.653829668078E+00  1.673675624095E+00  1.693759731584E+00
  1.714084848363E+00  1.734653866544E+00  1.755469712942E+00  1.776535349498E+00
  1.797853773692E+00  1.819428018976E+00  1.841261155204E+00  1.863356289066E+00
  1.885716564535E+00  1.908345163309E+00  1.931245305269E+00  1.954420248932E+00
  1.977873291919E+00  2.001607771422E+00  2.025627064680E+00  2.049934589456E+00
  2.074533804529E+00  2.099428210183E+00  2.124621348706E+00  2.150116804890E+00
  2.175918206549E+00  2.202029225027E+00  2.228453575728E+00  2.255195018636E+00
  2.282257358860E+00  2.309644447166E+00  2.337360180532E+00  2.365408502699E+00
  2.393793404731E+00  2.422518925588E+00  2.451589152695E+00  2.481008222527E+00
  2.510780321198E+00  2.540909685052E+00  2.571400601273E+00  2.602257408488E+00
  2.633484497390E+00  2.665086311359E+00  2.697067347095E+00  2.729432155260E+00
  2.762185341123E+00  2.795331565217E+00  2.828875543999E+00  2.862822050527E+00
  2.897175915133E+00  2.931942026115E+00  2.967125330428E+00  3.002730834394E+00
  3.038763604406E+00  3.075228767659E+00  3.112131512871E+00  3.149477091026E+00
  3.187270816118E+00  3.225518065911E+00  3.264224282702E+00  3.303394974095E+00
  3.343035713784E+00  3.383152142349E+00  3.423749968057E+00  3.464834967674E+00
  3.506412987286E+00  3.548489943134E+00  3.591071822451E+00  3.634164684321E+00
  3.677774660532E+00  3.721907956459E+00  3.766570851936E+00  3.811769702160E+00
  3.857510938585E+00  3.903801069848E+00  3.950646682687E+00  3.998054442879E+00
  4.046031096193E+00  4.094583469348E+00  4.143718470980E+00  4.193443092632E+00
  4.243764409743E+00  4.294689582660E+00  4.346225857652E+00  4.398380567944E+00
  4.451161134759E+00  4.504575068376E+00  4.558629969197E+00  4.613333528827E+00
  4.668693531173E+00  4.724717853547E+00  4.781414467790E+00  4.838791441403E+00
  4.896856938700E+00  4.955619221965E+00  5.015086652628E+00  5.075267692460E+00
  5.136170904769E+00  5.197804955626E+00  5.260178615094E+00  5.323300758475E+00
  5.387180367577E+00  5.451826531988E+00  5.517248450372E+00  5.583455431776E+00
  5.650456896957E+00  5.718262379721E+00  5.786881528277E+00  5.856324106617E+00
  5.926599995896E+00  5.997719195847E+00  6.069691826197E+00  6.142528128111E+00
  6.216238465649E+00  6.290833327237E+00  6.366323327163E+00  6.442719207089E+00
  6.520031837574E+00  6.598272219625E+00  6.677451486261E+00  6.757580904096E+00
  6.838671874945E+00  6.920735937445E+00  7.003784768694E+00  7.087830185918E+00
  7.172884148149E+00  7.258958757927E+00  7.346066263022E+00  7.434219058178E+00
  7.523429686877E+00  7.613710843119E+00  7.705075373236E+00  7.797536277715E+00
  7.891106713048E+00  7.985799993604E+00  8.081629593528E+00  8.178609148650E+00
  8.276752458434E+00  8.376073487935E+00  8.476586369790E+00  8.578305406228E+00
  8.681245071102E+00  8.785420011956E+00  8.890845052099E+00  8.997535192724E+00
  9.105505615037E+00  9.214771682418E+00  9.325348942607E+00  9.437253129918E+00
  9.550500167477E+00  9.665106169487E+00  9.781087443520E+00  9.898460492843E+00
  1.001724201876E+01  1.013744892298E+01  1.025909831006E+01  1.038220748978E+01
  1.050679397966E+01  1.063287550741E+01  1.076047001350E+01  1.088959565366E+01
  1.102027080151E+01  1.115251405112E+01  1.128634421974E+01  1.142178035037E+01
  1.155884171458E+01  1.169754781515E+01  1.183791838894E+01  1.197997340960E+01
  1.212373309052E+01  1.226921788760E+01  1.241644850226E+01  1.256544588428E+01
  1.271623123489E+01  1.286882600971E+01  1.302325192183E+01  1.317953094489E+01
  1.333768531623E+01  1.349773754003E+01  1.365971039051E+01  1.382362691519E+01
  1.398951043817E+01  1.415738456343E+01  1.432727317819E+01  1.449920045633E+01
  1.467319086181E+01  1.484926915215E+01  1.502746038197E+01  1.520778990656E+01
  1.539028338544E+01  1.557496678606E+01  1.576186638750E+01  1.595100878415E+01
  1.614242088956E+01  1.633612994023E+01  1.653216349951E+01  1.673054946151E+01
  1.693131605504E+01  1.713449184771E+01  1.734010574988E+01  1.754818701888E+01
  1.775876526310E+01  1.797187044626E+01  1.818753289162E+01  1.840578328631E+01
  1.862665268575E+01  1.885017251798E+01  1.907637458820E+01  1.930529108325E+01
  1.953695457625E+01  1.977139803117E+01  2.000865480754E+01  2.024875866523E+01
  2.049174376921E+01  2.073764469445E+01  2.098649643078E+01  2.123833438795E+01
  2.149319440060E+01  2.175111273341E+01  2.201212608621E+01  2.227627159925E+01
  2.254358685844E+01  2.281410990074E+01  2.308787921955E+01  2.336493377018E+01
  2.364531297542E+01  2.392905673113E+01  2.421620541190E+01  2.450679987685E+01
  2.480088147537E+01  2.509849205307E+01  2.539967395771E+01  2.570447004520E+01
  2.601292368574E+01  2.632507876997E+01  2.664097971521E+01  2.696067147179E+01
  2.728419952946E+01  2.761160992381E+01  2.794294924290E+01  2.827826463381E+01
  2.861760380942E+01  2.896101505513E+01  2.930854723579E+01  2.966024980262E+01
  3.001617280025E+01  3.037636687385E+01  3.074088327634E+01  3.110977387566E+01
  3.148309116216E+01  3.186088825611E+01  3.224321891518E+01  3.263013754217E+01
  3.302169919267E+01  3.341795958298E+01  3.381897509798E+01  3.422480279916E+01
  3.463550043275E+01  3.505112643794E+01  3.547173995519E+01  3.589740083466E+01
  3.632816964467E+01  3.676410768041E+01  3.720527697257E+01  3.765174029624E+01
  3.810356117980E+01  3.856080391396E+01  3.902353356092E+01  3.949181596366E+01
  3.996571775522E+01  4.044530636828E+01  4.093065004470E+01  4.142181784524E+01
  4.191887965938E+01  4.242190621529E+01  4.293096908988E+01  4.344614071895E+01
  4.396749440758E+01
</grid-data>
</grid>
<valence-charge total-charge="16" is-unscreening-charge="yes"
 rescaled-to-z-pseudo="no">
<radfunc>
<data npts="457">
  6.204593531445E-03  6.231611528348E-03  6.320273367988E-03  6.494521711872E-03
  6.809759070061E-03  7.314737033699E-03  8.125072122033E-03  9.282092821440E-03
  1.087460614617E-02  1.312066294294E-02  1.615308012600E-02  2.004920245356E-02
  2.558930516727E-02  3.234313414429E-02  4.007327682686E-02  5.018992799870E-02
  6.344014000291E-02  7.757348050611E-02  9.528039526387E-02  1.174640070047E-01
  1.452506759153E-01  1.724455618479E-01  2.049880064862E-01  2.439119422382E-01
  2.904427372069E-01  3.460295996834E-01  4.123824299942E-01  4.704100026749E-01
  5.365933624450E-01  6.120299164272E-01  6.979520143304E-01  7.957404308891E-01
  9.069384153149E-01  1.033266104374E+00  1.176635015624E+00  1.339162239192E+00
  1.523183827685E+00  1.731266741892E+00  1.884732415208E+00  2.051027445507E+00
  2.231093823746E+00  2.425922723240E+00  2.636553845978E+00  2.864074095035E+00
  3.109615456180E+00  3.374351959723E+00  3.659495581530E+00  3.966290929999E+00
  4.296008554174E+00  4.649936697396E+00  5.029371311447E+00  5.435604138808E+00
  5.869908666012E+00  6.333523750146E+00  6.827634724330E+00  7.353351797644E+00
  7.911685581868E+00  8.503519602978E+00  9.129579691288E+00  9.790400192075E+00
  1.048628700039E+01  1.121727750124E+01  1.198309759138E+01  1.278311607288E+01
  1.361629684309E+01  1.448114946156E+01  1.537567885137E+01  1.583329851153E+01
  1.629733509122E+01  1.676737512167E+01  1.724296447186E+01  1.772360698975E+01
  1.820876322458E+01  1.869784924583E+01  1.919023557519E+01  1.968524624864E+01
  2.018215802702E+01  2.068019977417E+01  2.117855202231E+01  2.167634674542E+01
  2.217266736174E+01  2.266654898701E+01  2.315697896055E+01  2.364289766634E+01
  2.412319967123E+01  2.459673520232E+01  2.506231198495E+01  2.551869746209E+01
  2.596462141477E+01  2.639877900202E+01  2.681983423701E+01  2.722642391383E+01
  2.761716199729E+01  2.799064448487E+01  2.834545474678E+01  2.868016934636E+01
  2.899336433883E+01  2.928362204153E+01  2.954953826393E+01  2.978972997994E+01
  3.000284341883E+01  3.018756254499E+01  3.034261788968E+01  3.046679569065E+01
  3.055894728849E+01  3.061799872042E+01  3.064296044498E+01  3.063293712287E+01
  3.058713737181E+01  3.050488340583E+01  3.038562046204E+01  3.022892591181E+01
  3.003451794688E+01  2.980226372630E+01  2.953218686582E+01  2.922447414869E+01
  2.887948133539E+01  2.849773794998E+01  2.807995092293E+01  2.762700697396E+01
  2.713997362477E+01  2.662009873956E+01  2.606880850215E+01  2.548770375138E+01
  2.487855461202E+01  2.424329337648E+01  2.358400561281E+01  2.290291949703E+01
  2.220239339254E+01  2.148490172550E+01  2.075301923312E+01  2.000940369037E+01
  1.925677725024E+01  1.849790656181E+01  1.773558185943E+01  1.697259524360E+01
  1.621171839981E+01  1.545568002435E+01  1.470714324557E+01  1.396868334409E+01
  1.324276608610E+01  1.253172698821E+01  1.183775183152E+01  1.116285873430E+01
  1.050888207822E+01  9.877458561408E+00  9.270015622793E+00  8.687762446979E+00
  8.131683717253E+00  7.602536237073E+00  7.100848488587E+00  6.626923141308E+00
  6.180842466419E+00  5.762476553829E+00  5.371494171556E+00  5.007376052004E+00
  4.669430338951E+00  4.356809884122E+00  4.068531044720E+00  3.803493604481E+00
  3.560501421823E+00  3.338283400224E+00  3.135514378506E+00  2.950835552165E+00
  2.782874060892E+00  2.630261411095E+00  2.491650444326E+00  2.365730611464E+00
  2.251241366424E+00  2.146983550046E+00  2.051828692483E+00  1.964726218829E+00
  1.884708595879E+00  1.810894506082E+00  1.742489597680E+00  1.678783106684E+00
  1.619141563680E+00  1.563004853629E+00  1.509883007235E+00  1.459351169241E+00
  1.411044578286E+00  1.364653235072E+00  1.319916498917E+00  1.276617742991E+00
  1.234579178724E+00  1.193656934499E+00  1.153736450303E+00  1.114728229418E+00
  1.076563970866E+00  1.039193092125E+00  1.002579754588E+00  9.667007297705E-01
  9.315438331440E-01  8.971059030565E-01  8.633903592864E-01  8.304039652548E-01
  7.981535455431E-01  7.666453975520E-01  7.358855520676E-01  7.058794237665E-01
  6.766317194303E-01  6.481463294345E-01  6.204262405159E-01  5.934734654565E-01
  5.672889885496E-01  5.418727257511E-01  5.172234984160E-01  4.933390195377E-01
  4.702158913439E-01  4.478496133216E-01  4.262345995010E-01  4.053642040565E-01
  3.852307542375E-01  3.658255897023E-01  3.471391073077E-01  3.291608106070E-01
  3.118793631400E-01  2.952826448104E-01  2.793578106276E-01  2.640913511509E-01
  2.494691540213E-01  2.354765660191E-01  2.220984551322E-01  2.093192721691E-01
  1.971231114981E-01  1.854937705424E-01  1.744148076970E-01  1.638695983968E-01
  1.538413890735E-01  1.443133488207E-01  1.352686185807E-01  1.266903577328E-01
  1.185617879847E-01  1.108662344972E-01  1.035871642070E-01  9.670822133400E-02
  9.021326008498E-02  8.408637458772E-02  7.831192610679E-02  7.287456761006E-02
  6.775926576794E-02  6.295132047921E-02  5.843638202561E-02  5.420046596410E-02
  5.022996586927E-02  4.651166404063E-02  4.303274028877E-02  3.978077891316E-02
  3.674377398030E-02  3.391013300724E-02  3.126867914994E-02  2.880865199065E-02
  2.651970701310E-02  2.439191384895E-02  2.241575337441E-02  2.058211373198E-02
  1.888228534901E-02  1.730795502276E-02  1.585119913997E-02  1.450447609827E-02
  1.326061799685E-02  1.211282166385E-02  1.105463908865E-02  1.007996732778E-02
  9.183037953726E-03  8.358406115916E-03  7.600939283242E-03  6.905805736489E-03
  6.268462877962E-03  5.684645423659E-03  5.150353540942E-03  4.661840991690E-03
  4.215603337429E-03  3.808366259051E-03  3.437074039502E-03  3.098878253290E-03
  2.791126702009E-03  2.511352630266E-03  2.257264251620E-03  2.026734609408E-03
  1.817791792688E-03  1.628609523116E-03  1.457498124347E-03  1.302895881606E-03
  1.163360795425E-03  1.037562730208E-03  9.242759553264E-04  8.223720737667E-04
  7.308133311102E-04  6.486462956481E-04  5.749958988610E-04  5.090598242019E-04
  4.501032311550E-04  3.974538008475E-04  3.504970890575E-04  3.086721722447E-04
  2.714675722136E-04  2.384174451643E-04  2.090980211655E-04  1.831242804648E-04
  1.601468535200E-04  1.398491321444E-04  1.219445797160E-04  1.061742289611E-04
  9.230435639266E-05  8.012432304087E-05  6.944457164930E-05  6.009477102712E-05
  5.192209873340E-05  4.478965372604E-05  3.857499103633E-05  3.316877093243E-05
  2.847351540564E-05  2.440246516383E-05  2.087853064720E-05  1.783333089052E-05
  1.520631435056E-05  1.294395609936E-05  1.099902605372E-05  9.329923172213E-06
  7.900070803829E-06  6.677368617996E-06  5.633696785925E-06  4.744468317349E-06
  3.988225685863E-06  3.346278099884E-06  2.802375994757E-06  2.342419534490E-06
  1.954198118633E-06  1.627158090668E-06  1.352196038460E-06  1.121475264494E-06
  9.282631834414E-07  7.667875767227E-07  6.321097979170E-07  5.200131788712E-07
  4.269050341008E-07  3.497308004139E-07  2.858989796624E-07  2.332156751642E-07
  1.898276267656E-07  1.541727558896E-07  1.249373304529E-07  1.010189504971E-07
  8.149463904717E-08  6.559339940790E-08  5.267267017996E-08  4.219817306933E-08
  3.372670645565E-08  2.689149004139E-08  2.138971310157E-08  1.697198126267E-08
  1.343339472123E-08  1.060602472173E-08  8.352585288631E-09  6.561123975898E-09
  5.140579067751E-09  4.017071530006E-09  3.130818346471E-09  2.433569936065E-09
  1.886488371502E-09  1.458395329451E-09  1.124329296925E-09  8.643607239548E-10
  6.626217164499E-10  5.065136577092E-10  3.860619697261E-10  2.933921994085E-10
  2.223058504408E-10  1.679379768484E-10  1.264815964468E-10  9.496654812676E-11
  7.108257394405E-11  5.303821449458E-11  3.944861573305E-11  2.924660217760E-11
  2.161241422853E-11  1.591836967213E-11  1.168542016774E-11  8.549157301110E-12
  6.233300665233E-12  4.529090268111E-12  3.279322479457E-12  2.366025455295E-12
  1.700977214802E-12  1.218436231596E-12  8.695879924053E-13  6.183176517355E-13
  4.380037815208E-13  3.090954863560E-13  2.172882771619E-13  1.521558861875E-13
  1.061279557121E-13  7.372909820463E-14  5.101470493726E-14  3.515427677281E-14
  2.412492816451E-14  1.648684081573E-14  1.121942592479E-14  7.602274549813E-15
  5.129014068449E-15  3.445236705818E-15  2.303966809869E-15  1.533847611722E-15
  1.016514639018E-15  6.705741155603E-16  4.403091049132E-16  2.877544109188E-16
  1.871609155935E-16  1.211468901354E-16  7.803475573674E-17  5.001692425621E-17
  3.189870174002E-17  2.024089601441E-17  1.277792157125E-17  8.024849221550E-18
  5.013387105746E-18  2.645257874170E-18  1.638227257144E-18  0.000000000000E+00
  0.000000000000E+00  0.000000000000E+00  0.000000000000E+00  0.000000000000E+00
  0.000000000000E+00  0.000000000000E+00  0.000000000000E+00  0.000000000000E+00
  0.000000000000E+00  0.000000000000E+00  0.000000000000E+00  0.000000000000E+00
  0.000000000000E+00  0.000000000000E+00  0.000000000000E+00  0.000000000000E+00
  0.000000000000E+00  0.000000000000E+00  0.000000000000E+00  0.000000000000E+00
  0.000000000000E+00  0.000000000000E+00  0.000000000000E+00  0.000000000000E+00
  0.000000000000E+00  0.000000000000E+00  0.000000000000E+00  0.000000000000E+00
  0.000000000000E+00  0.000000000000E+00  0.000000000000E+00  0.000000000000E+00
  0.000000000000E+00  0.000000000000E+00  0.000000000000E+00  0.000000000000E+00
  0.000000000000E+00
</data>
</radfunc>
</valence-charge>
<pseudocore-charge matching-radius="0.644510935795"
 number-of-continuous-derivatives="4">
<annotation model-charge-form="Teter function with specified parameters" />
<radfunc>
<data npts="291">
  1.530830495131E+02  1.530680758331E+02  1.530233173102E+02  1.529486541911E+02
  1.528391201228E+02  1.526993973137E+02  1.525213849421E+02  1.523176314011E+02
  1.520886420096E+02  1.518217507641E+02  1.515211079159E+02  1.511945574024E+02
  1.508002191454E+02  1.503887439238E+02  1.499780690079E+02  1.495054983797E+02
  1.489619343316E+02  1.484473012888E+02  1.478694630058E+02  1.472209405904E+02
  1.464934463822E+02  1.458484648487E+02  1.451419727040E+02  1.443684409060E+02
  1.435219141029E+02  1.425959930456E+02  1.415838199810E+02  1.407636976144E+02
  1.398876809721E+02  1.389523541608E+02  1.379541530773E+02  1.368893689287E+02
  1.357541538656E+02  1.345445290886E+02  1.332563958251E+02  1.318855496136E+02
  1.304276983769E+02  1.288784848032E+02  1.277927489983E+02  1.266631492331E+02
  1.254883841786E+02  1.242671618429E+02  1.229982057106E+02  1.216802615307E+02
  1.203121047877E+02  1.188925488955E+02  1.174204541460E+02  1.158947374476E+02
  1.143143828805E+02  1.126784530945E+02  1.109861015683E+02  1.092365857422E+02
  1.074292810282E+02  1.055636956899E+02  1.036394865755E+02  1.016564756692E+02
  9.961466741358E+01  9.751426673486E+01  9.535569768166E+01  9.313962256542E+01
  9.086696146245E+01  8.853891190921E+01  8.615696858962E+01  8.372294277883E+01
  8.123898127028E+01  7.870758447354E+01  7.613162332952E+01  7.482793342704E+01
  7.351435464714E+01  7.219135656960E+01  7.085943442348E+01  6.951910935894E+01
  6.817092866781E+01  6.681546594838E+01  6.545332121017E+01  6.408512091354E+01
  6.271151793995E+01  6.133319148769E+01  5.995084688842E+01  5.856521533957E+01
  5.717705354763E+01  5.578714327764E+01  5.439629080391E+01  5.300532625738E+01
  5.161510286486E+01  5.022649607596E+01  4.884040257328E+01  4.745773916212E+01
  4.607944153591E+01  4.470646291422E+01  4.333977255048E+01  4.198035410702E+01
  4.062920389572E+01  3.928732898298E+01  3.795574515859E+01  3.663547476862E+01
  3.532754441357E+01  3.403298251352E+01  3.275281674334E+01  3.148807134174E+01
  3.023976429939E+01  2.900890443206E+01  2.779648834632E+01  2.660349730654E+01
  2.543089401294E+01  2.427961930244E+01  2.315058878475E+01  2.204468942812E+01
  2.096277611037E+01  1.990566815224E+01  1.887414585167E+01  1.786894703886E+01
  1.689076367345E+01  1.594023850622E+01  1.501796182931E+01  1.412446833936E+01
  1.326023413972E+01  1.242567390787E+01  1.162113825535E+01  1.084691130754E+01
  1.010320853092E+01  9.390174835126E+00  8.707882976910E+00  8.056332292148E+00
  7.435447781030E+00  6.845079570124E+00  6.285002773096E+00  5.754917769703E+00
  5.254450919978E+00  4.783155727514E+00  4.340514462272E+00  3.925940249509E+00
  3.538779627173E+00  3.178315569501E+00  2.843770969671E+00  2.534312569128E+00
  2.249055315762E+00  1.987067127545E+00  1.747374032474E+00  1.528965650009E+00
  1.330800973468E+00  1.151814407436E+00  9.909220089904E-01  8.470278767520E-01
  7.190306274725E-01  6.058298961733E-01  5.063327929232E-01  4.194602472558E-01
  3.441531701149E-01  2.793783631646E-01  2.241341063962E-01  1.774553572820E-01
  1.384184982990E-01  1.061455745102E-01  7.980796903255E-02  5.862947159920E-02
  4.188870397966E-02  2.892087563207E-02  1.911885349728E-02  1.193354111607E-02
  6.873574047143E-03  3.504350636407E-03  1.446429260784E-03  3.733349452980E-04
  8.829415330021E-06  1.237088770204E-04  5.322027998561E-04  1.088054403656E-03
  1.680369150296E-03  2.229321070129E-03  2.681808026310E-03  3.007145911488E-03
  3.192888227890E-03  3.240851551895E-03  3.163419143514E-03  2.980184635262E-03
  2.714985618557E-03  2.393363417695E-03  2.040470854913E-03  1.679434878631E-03
  1.330166105883E-03  1.008593193984E-03  7.262870736098E-04  4.904289796119E-04
  3.040673776742E-04  1.666026840633E-04  7.443537542044E-05  2.171281155427E-05
  1.112820081846E-06  4.607632043411E-06  2.415977017752E-05  5.231149021708E-05
  8.264075300715E-05  1.100687656977E-04  1.310161308222E-04  1.434158402736E-04
  1.466010559559E-04  1.410932411614E-04  1.283213057464E-04  1.103047491520E-04
  8.933328448655E-05  6.767228075813E-05  4.731795661043E-05  2.981916857363E-05
  1.617456810601E-05  6.805638914656E-06  1.598458050161E-06  6.688373482377E-10
  1.155685388850E-06  4.053937949650E-06  7.681140835148E-06  1.114598345959E-05
  1.377392358988E-05  1.515930673905E-05  1.517411401345E-05  1.393747003814E-05
  1.175488831432E-05  9.039503099176E-06  6.228868379247E-06  3.710205608851E-06
  1.764453177076E-06  5.355758463011E-07  2.699064776947E-08  0.000000000000E+00
  0.000000000000E+00  0.000000000000E+00  0.000000000000E+00  0.000000000000E+00
  0.000000000000E+00  0.000000000000E+00  0.000000000000E+00  0.000000000000E+00
  0.000000000000E+00  0.000000000000E+00  0.000000000000E+00  0.000000000000E+00
  0.000000000000E+00  0.000000000000E+00  0.000000000000E+00  0.000000000000E+00
  0.000000000000E+00  0.000000000000E+00  0.000000000000E+00  0.000000000000E+00
  0.000000000000E+00  0.000000000000E+00  0.000000000000E+00  0.000000000000E+00
  0.000000000000E+00  0.000000000000E+00  0.000000000000E+00  0.000000000000E+00
  0.000000000000E+00  0.000000000000E+00  0.000000000000E+00  0.000000000000E+00
  0.000000000000E+00  0.000000000000E+00  0.000000000000E+00  0.000000000000E+00
  0.000000000000E+00  0.000000000000E+00  0.000000000000E+00  0.000000000000E+00
  0.000000000000E+00  0.000000000000E+00  0.000000000000E+00  0.000000000000E+00
  0.000000000000E+00  0.000000000000E+00  0.000000000000E+00  0.000000000000E+00
  0.000000000000E+00  0.000000000000E+00  0.000000000000E+00  0.000000000000E+00
  0.000000000000E+00  0.000000000000E+00  0.000000000000E+00  0.000000000000E+00
  0.000000000000E+00  0.000000000000E+00  0.000000000000E+00  0.000000000000E+00
  0.000000000000E+00  0.000000000000E+00  0.000000000000E+00  0.000000000000E+00
  0.000000000000E+00  0.000000000000E+00  0.000000000000E+00
</data>
</radfunc>
</pseudocore-charge>
<semilocal-potentials set="lj">
<slps n="4" l="s" j="0.5" rc="1.81942801898" eref="-0.635290722986">
<radfunc>
<data npts="291">
  4.560236167497E+01  4.556938959619E+01  4.547101420424E+01  4.530751998162E+01
  4.506903474422E+01  4.476715797049E+01  4.438630107147E+01  4.395544014949E+01
  4.347755223117E+01  4.292884960301E+01  4.232118189848E+01  4.167332983067E+01
  4.090739123960E+01  4.012666575259E+01  3.936563834729E+01  3.851156139316E+01
  3.755668763948E+01  3.667861886397E+01  3.572149376601E+01  3.468187422794E+01
  3.355697141267E+01  3.259429429467E+01  3.157521278943E+01  3.049965088457E+01
  2.936805997712E+01  2.818146845710E+01  2.694152282243E+01  2.597790536760E+01
  2.498676628028E+01  2.396952975203E+01  2.292782865183E+01  2.186349877049E+01
  2.077856970161E+01  1.967525235558E+01  1.855592320331E+01  1.742310545062E+01
  1.627944744815E+01  1.512769874110E+01  1.435676416779E+01  1.358433832385E+01
  1.281127716564E+01  1.203843885242E+01  1.126668008264E+01  1.049685248776E+01
  9.729799122528E+00  8.966351089188E+00  8.207324331686E+00  7.453516633148E+00
  6.705704847285E+00  5.964642390871E+00  5.231057020696E+00  4.505648914254E+00
  3.789089069118E+00  3.082018031383E+00  2.385044958965E+00  1.698747020933E+00
  1.023669129498E+00  3.603239968555E-01 -2.908074950948E-01 -9.292756280996E-01
 -1.554660903555E+00 -2.166572844042E+00 -2.764648566230E+00 -3.348551153588E+00
 -3.917967859603E+00 -4.472608174218E+00 -5.012201788007E+00 -5.276276617505E+00
 -5.536496490342E+00 -5.792832358584E+00 -6.045256039580E+00 -6.293740150704E+00
 -6.538258045308E+00 -6.778783750210E+00 -7.015291905087E+00 -7.247757704212E+00
 -7.476156840884E+00 -7.700465454985E+00 -7.920660084130E+00 -8.136717618842E+00
 -8.348615262250E+00 -8.556330494810E+00 -8.759841044570E+00 -8.959124863546E+00
 -9.154160110754E+00 -9.344925142515E+00 -9.531398510633E+00 -9.713558969071E+00
 -9.891385489781E+00 -1.006485728832E+01 -1.023395385993E+01 -1.039865502666E+01
 -1.055894099628E+01 -1.071479243344E+01 -1.086619054371E+01 -1.101311717099E+01
 -1.115555490861E+01 -1.129348722452E+01 -1.142689860063E+01 -1.155577468633E+01
 -1.168010246598E+01 -1.179987043994E+01 -1.191506881844E+01 -1.202568972735E+01
 -1.213172742453E+01 -1.223317852525E+01 -1.233004223475E+01 -1.242232058562E+01
 -1.251001867763E+01 -1.259314491700E+01 -1.267171125228E+01 -1.274573340329E+01
 -1.281523108005E+01 -1.288022818801E+01 -1.294075301622E+01 -1.299683840504E+01
 -1.304852189011E+01 -1.309584581938E+01 -1.313885744045E+01 -1.317760895527E+01
 -1.321215753974E+01 -1.324256532567E+01 -1.326889934274E+01 -1.329123141787E+01
 -1.330963802934E+01 -1.332420011267E+01 -1.333500281482E+01 -1.334213519264E+01
 -1.334568985094E+01 -1.334576251467E+01 -1.334245152923E+01 -1.333585728198E+01
 -1.332608153811E+01 -1.331322668366E+01 -1.329739486981E+01 -1.327868705400E+01
 -1.325720193725E+01 -1.323303480194E+01 -1.320627626253E+01 -1.317701095188E+01
 -1.314531617989E+01 -1.311126061707E+01 -1.307490307409E+01 -1.303629146586E+01
 -1.299546206341E+01 -1.295243914316E+01 -1.290723513720E+01 -1.285985136305E+01
 -1.281027936356E+01 -1.275850281401E+01 -1.270449985549E+01 -1.264824559789E+01
 -1.258971441354E+01 -1.252888153317E+01 -1.246572338516E+01 -1.240021612213E+01