<?xml version="1.0" encoding="UTF-8" ?>
<psml version="1.1" energy_unit="hartree" length_unit="bohr"
 uuid="f5889520-539d-11e8-7789-7912c64f2f4c"
 xmlns="http://esl.cecam.org/PSML/ns/1.1">
<provenance creator="ONCVPSP-3.3.0+psml-3.3.0-73 (fully-relativistic)"
 date="2018-05-09">
<annotation action="semilocal-pseudopotential-generation"
 action-cont="projectors-generation" />
<input-file name="oncvpsp-input">
<![CDATA[# atsym z nc nv iexc psfile
F 9 1 2 -116133 upf
# n l f
1 0 2.0
2 0 2.0
2 1 5.0
# lmax
2
# l rc ep ncon nbas qcut
0 1.3 0.0 4 8 8.6
1 1.45 0.0 4 8 9.0
2 1.6 0.15 4 8 5.8
# lloc lpopt rc5 dvloc0
4 5 0.95 0.0
# l nproj debl
0 2 1.5
1 2 1.5
2 1 2.0
# icmod fcfact rcfact
3 2.5 1.85
# epsh1 epsh2 depsh
-12.0 12.0 0.02
# rlmax drl
6.0 0.01
 0
]]>
</input-file>
</provenance>
<pseudo-atom-spec atomic-label="F" atomic-number="9" z-pseudo="7"
 flavor="Hamann&apos;s oncvpsp" relativity="dirac" spin-dft="no"
 core-corrections="yes">
<annotation pseudo-energy="-23.8211294547" />
<exchange-correlation>
<annotation oncvpsp-xc-code="-116133" oncvpsp-xc-type="libxc-interface" />
<libxc-info number-of-functionals="2">
<functional name="Perdew, Burke &amp; Ernzerhof SOL (GGA)" type="exchange"
 id="116" />
<functional name="Perdew, Burke &amp; Ernzerhof SOL (GGA)" type="correlation"
 id="133" />
</libxc-info>
</exchange-correlation>
<valence-configuration total-valence-charge="7">
<shell n="2" l="s" occupation="2" />
<shell n="2" l="p" occupation="5" />
</valence-configuration>
</pseudo-atom-spec>
<grid npts="457">
<annotation type="sampled from oncvpsp log grid"
 recipe="r(i:1..N) = r1*exp(a*(i-1)) + r=0; resampled"
 recipe-cont="r1: scale; a: step" scale="0.555555555556E-04"
 step="0.119285708653E-01" delta="0.500000000000E-02" rmax="44.1907361906" />
<grid-data>
  0.000000000000E+00  5.046162377637E-03  1.007931334073E-02  1.512057726285E-02
  2.013263740199E-02  2.525401356072E-02  3.056459245980E-02  3.569153875685E-02
  4.069592361693E-02  4.585176253312E-02  5.104822514639E-02  5.615969585203E-02
  6.178297931314E-02  6.716336310323E-02  7.301229875098E-02  7.842943695036E-02
  8.424849902796E-02  8.942619137815E-02  9.492209115497E-02  1.007557545544E-01
  1.069479396451E-01  1.121745852098E-01  1.176566618182E-01  1.234066526239E-01
  1.294376508434E-01  1.357633895713E-01  1.423982730511E-01  1.475863729991E-01
  1.529634947694E-01  1.585365251318E-01  1.643126017665E-01  1.702991224063E-01
  1.765037543106E-01  1.829344440862E-01  1.895994278638E-01  1.965072418476E-01
  2.036667332471E-01  2.110870716089E-01  2.161835578658E-01  2.214030936869E-01
  2.267486499809E-01  2.322232693860E-01  2.378300680021E-01  2.435722371639E-01
  2.494530452580E-01  2.554758395827E-01  2.616440482536E-01  2.679611821546E-01
  2.744308369366E-01  2.810566950636E-01  2.878425279092E-01  2.947921979030E-01
  3.019096607292E-01  3.091989675778E-01  3.166642674510E-01  3.243098095244E-01
  3.321399455655E-01  3.401591324113E-01  3.483719345042E-01  3.567830264909E-01
  3.653971958825E-01  3.742193457798E-01  3.832544976644E-01  3.925077942560E-01
  4.019845024405E-01  4.116900162674E-01  4.216298600202E-01  4.266894183404E-01
  4.318096913605E-01  4.369914076568E-01  4.422353045487E-01  4.475421282033E-01
  4.529126337417E-01  4.583475853466E-01  4.638477563708E-01  4.694139294472E-01
  4.750468966006E-01  4.807474593598E-01  4.865164288721E-01  4.923546260186E-01
  4.982628815308E-01  5.042420361092E-01  5.102929405425E-01  5.164164558290E-01
  5.226134532990E-01  5.288848147385E-01  5.352314325154E-01  5.416542097056E-01
  5.481540602221E-01  5.547319089447E-01  5.613886918521E-01  5.681253561543E-01
  5.749428604281E-01  5.818421747533E-01  5.888242808503E-01  5.958901722205E-01
  6.030408542872E-01  6.102773445386E-01  6.176006726731E-01  6.250118807451E-01
  6.325120233141E-01  6.401021675939E-01  6.477833936050E-01  6.555567943282E-01
  6.634234758602E-01  6.713845575705E-01  6.794411722613E-01  6.875944663285E-01
  6.958455999244E-01  7.041957471235E-01  7.126460960890E-01  7.211978492421E-01
  7.298522234330E-01  7.386104501142E-01  7.474737755155E-01  7.564434608217E-01
  7.655207823516E-01  7.747070317398E-01  7.840035161207E-01  7.934115583141E-01
  8.029324970139E-01  8.125676869781E-01  8.223184992218E-01  8.321863212125E-01
  8.421725570670E-01  8.522786277518E-01  8.625059712848E-01  8.728560429403E-01
  8.833303154555E-01  8.939302792410E-01  9.046574425919E-01  9.155133319030E-01
  9.264994918858E-01  9.376174857885E-01  9.488688956179E-01  9.602553223653E-01
  9.717783862337E-01  9.834397268685E-01  9.952410035910E-01  1.007183895634E+00
  1.019270102382E+00  1.031501343610E+00  1.043879359734E+00  1.056405912050E+00
  1.069082782995E+00  1.081911776391E+00  1.094894717708E+00  1.108033454320E+00
  1.121329855772E+00  1.134785814041E+00  1.148403243810E+00  1.162184082735E+00
  1.176130291728E+00  1.190243855229E+00  1.204526781492E+00  1.218981102870E+00
  1.233608876104E+00  1.248412182617E+00  1.263393128809E+00  1.278553846354E+00
  1.293896492511E+00  1.309423250421E+00  1.325136329426E+00  1.341037965379E+00
  1.357130420963E+00  1.373415986015E+00  1.389896977847E+00  1.406575741581E+00
  1.423454650480E+00  1.440536106286E+00  1.457822539562E+00  1.475316410036E+00
  1.493020206957E+00  1.510936449440E+00  1.529067686834E+00  1.547416499076E+00
  1.565985497064E+00  1.584777323029E+00  1.603794650906E+00  1.623040186716E+00
  1.642516668957E+00  1.662226868985E+00  1.682173591412E+00  1.702359674509E+00
  1.722787990603E+00  1.743461446491E+00  1.764382983849E+00  1.785555579655E+00
  1.806982246611E+00  1.828666033570E+00  1.850610025973E+00  1.872817346284E+00
  1.895291154440E+00  1.918034648293E+00  1.941051064073E+00  1.964343676841E+00
  1.987915800964E+00  2.011770790575E+00  2.035912040062E+00  2.060342984543E+00
  2.085067100357E+00  2.110087905562E+00  2.135408960428E+00  2.161033867953E+00
  2.186966274369E+00  2.213209869661E+00  2.239768388097E+00  2.266645608754E+00
  2.293845356059E+00  2.321371500332E+00  2.349227958336E+00  2.377418693836E+00
  2.405947718162E+00  2.434819090780E+00  2.464036919870E+00  2.493605362908E+00
  2.523528627263E+00  2.553810970790E+00  2.584456702440E+00  2.615470182869E+00
  2.646855825063E+00  2.678618094964E+00  2.710761512104E+00  2.743290650249E+00
  2.776210138052E+00  2.809524659708E+00  2.843238955625E+00  2.877357823092E+00
  2.911886116969E+00  2.946828750373E+00  2.982190695378E+00  3.017976983722E+00
  3.054192707527E+00  3.090843020017E+00  3.127933136257E+00  3.165468333892E+00
  3.203453953899E+00  3.241895401346E+00  3.280798146162E+00  3.320167723916E+00
  3.360009736603E+00  3.400329853442E+00  3.441133811684E+00  3.482427417424E+00
  3.524216546433E+00  3.566507144990E+00  3.609305230730E+00  3.652616893499E+00
  3.696448296221E+00  3.740805675775E+00  3.785695343885E+00  3.831123688011E+00
  3.877097172267E+00  3.923622338335E+00  3.970705806395E+00  4.018354276071E+00
  4.066574527384E+00  4.115373421713E+00  4.164757902773E+00  4.214734997607E+00
  4.265311817578E+00  4.316495559389E+00  4.368293506101E+00  4.420713028175E+00
  4.473761584513E+00  4.527446723527E+00  4.581776084209E+00  4.636757397220E+00
  4.692398485986E+00  4.748707267818E+00  4.805691755032E+00  4.863360056092E+00
  4.921720376766E+00  4.980781021287E+00  5.040550393542E+00  5.101036998265E+00
  5.162249442244E+00  5.224196435551E+00  5.286886792777E+00  5.350329434291E+00
  5.414533387502E+00  5.479507788152E+00  5.545261881610E+00  5.611805024189E+00
  5.679146684480E+00  5.747296444693E+00  5.816264002030E+00  5.886059170054E+00
  5.956691880095E+00  6.028172182656E+00  6.100510248848E+00  6.173716371834E+00
  6.247800968296E+00  6.322774579916E+00  6.398647874875E+00  6.475431649373E+00
  6.553136829165E+00  6.631774471115E+00  6.711355764769E+00  6.791892033946E+00
  6.873394738353E+00  6.955875475214E+00  7.039345980916E+00  7.123818132687E+00
  7.209303950279E+00  7.295815597683E+00  7.383365384855E+00  7.471965769473E+00
  7.561629358707E+00  7.652368911011E+00  7.744197337944E+00  7.837127705999E+00
  7.931173238471E+00  8.026347317333E+00  8.122663485141E+00  8.220135446962E+00
  8.318777072326E+00  8.418602397194E+00  8.519625625960E+00  8.621861133472E+00
  8.725323467073E+00  8.830027348678E+00  8.935987676862E+00  9.043219528985E+00
  9.151738163332E+00  9.261559021292E+00  9.372697729548E+00  9.485170102302E+00
  9.598992143530E+00  9.714180049252E+00  9.830750209843E+00  9.948719212362E+00
  1.006810384291E+01  1.018892108902E+01  1.031118814209E+01  1.043492239980E+01
  1.056014146860E+01  1.068686316622E+01  1.081510552421E+01  1.094488679050E+01
  1.107622543199E+01  1.120914013717E+01  1.134364981882E+01  1.147977361665E+01
  1.161753090005E+01  1.175694127085E+01  1.189802456610E+01  1.204080086089E+01
  1.218529047122E+01  1.233151395687E+01  1.247949212436E+01  1.262924602985E+01
  1.278079698221E+01  1.293416654599E+01  1.308937654455E+01  1.324644906308E+01
  1.340540645184E+01  1.356627132926E+01  1.372906658521E+01  1.389381538423E+01
  1.406054116884E+01  1.422926766287E+01  1.440001887482E+01  1.457281910132E+01
  1.474769293054E+01  1.492466524571E+01  1.510376122865E+01  1.528500636340E+01
  1.546842643976E+01  1.565404755704E+01  1.584189612772E+01  1.603199888125E+01
  1.622438286783E+01  1.641907546224E+01  1.661610436779E+01  1.681549762020E+01
  1.701728359164E+01  1.722149099474E+01  1.742814888668E+01  1.763728667332E+01
  1.784893411340E+01  1.806312132276E+01  1.827987877863E+01  1.849923732398E+01
  1.872122817187E+01  1.894588290993E+01  1.917323350485E+01  1.940331230691E+01
  1.963615205459E+01  1.987178587924E+01  2.011024730979E+01  2.035157027751E+01
  2.059578912084E+01  2.084293859029E+01  2.109305385338E+01  2.134617049962E+01
  2.160232454561E+01  2.186155244016E+01  2.212389106944E+01  2.238937776227E+01
  2.265805029542E+01  2.292994689897E+01  2.320510626175E+01  2.348356753690E+01
  2.376537034734E+01  2.405055479151E+01  2.433916144900E+01  2.463123138639E+01
  2.492680616303E+01  2.522592783699E+01  2.552863897103E+01  2.583498263868E+01
  2.614500243035E+01  2.645874245951E+01  2.677624736902E+01  2.709756233745E+01
  2.742273308550E+01  2.775180588253E+01  2.808482755312E+01  2.842184548376E+01
  2.876290762956E+01  2.910806252112E+01  2.945735927137E+01  2.981084758263E+01
  3.016857775362E+01  3.053060068666E+01  3.089696789490E+01  3.126773150964E+01
  3.164294428775E+01  3.202265961921E+01  3.240693153464E+01  3.279581471305E+01
  3.318936448961E+01  3.358763686349E+01  3.399068850585E+01  3.439857676792E+01
  3.481135968913E+01  3.522909600540E+01  3.565184515747E+01  3.607966729936E+01
  3.651262330695E+01  3.695077478663E+01  3.739418408407E+01  3.784291429308E+01
  3.829702926460E+01  3.875659361577E+01  3.922167273916E+01  3.969233281203E+01
  4.016864080578E+01  4.065066449545E+01  4.113847246939E+01  4.163213413902E+01
  4.213171974869E+01  4.263730038568E+01  4.314894799030E+01  4.366673536619E+01
  4.419073619058E+01
</grid-data>
</grid>
<valence-charge total-charge="7" is-unscreening-charge="yes"
 rescaled-to-z-pseudo="no">
<radfunc>
<data npts="457">
  6.748136384635E+00  6.751671671314E+00  6.762236250024E+00  6.779849769528E+00
  6.804314045976E+00  6.836438534744E+00  6.877309300832E+00  6.924011531412E+00
  6.976397868844E+00  7.037321153523E+00  7.105776066831E+00  7.179922298474E+00
  7.269171625705E+00  7.361962237456E+00  7.470869407449E+00  7.579035805776E+00
  7.702850311536E+00  7.819480605003E+00  7.949744742699E+00  8.095071932230E+00
  8.256996213158E+00  8.399580036890E+00  8.554707420427E+00  8.723287285451E+00
  8.906252188055E+00  9.104548296689E+00  9.319122315672E+00  9.491296157455E+00
  9.673530502784E+00  9.866187745074E+00  1.006960571664E+01  1.028408965466E+01
  1.050990298341E+01  1.074725681020E+01  1.099629803676E+01  1.125709599675E+01
  1.152962754444E+01  1.181376054132E+01  1.200950557126E+01  1.221018236016E+01
  1.241564692319E+01  1.262572061782E+01  1.284018712434E+01  1.305878932148E+01
  1.328122607457E+01  1.350714895828E+01  1.373615894093E+01  1.396780306295E+01
  1.420157114808E+01  1.443689259264E+01  1.467313328532E+01  1.490959271779E+01
  1.514550135426E+01  1.538001833676E+01  1.561222961152E+01  1.584114657028E+01
  1.606570530910E+01  1.628476661501E+01  1.649711679809E+01  1.670146949258E+01
  1.689646855525E+01  1.708069219111E+01  1.725265843655E+01  1.741083212615E+01
  1.755363346157E+01  1.767944828869E+01  1.778664017141E+01  1.783273842008E+01
  1.787356432655E+01  1.790891358588E+01  1.793858345395E+01  1.796237334512E+01
  1.798008545808E+01  1.799152542920E+01  1.799650301203E+01  1.799483278167E+01
  1.798633486236E+01  1.797083567642E+01  1.794816871213E+01  1.791817530834E+01
  1.788070545271E+01  1.783561859065E+01  1.778278444140E+01  1.772208381757E+01
  1.765340944401E+01  1.757666677166E+01  1.749177478171E+01  1.739866677506E+01
  1.729729114180E+01  1.718761210544E+01  1.706961043582E+01  1.694328412510E+01
  1.680864902070E+01  1.666573940882E+01  1.651460854265E+01  1.635532910862E+01
  1.618799362481E+01  1.601271476517E+01  1.582962560370E+01  1.563887977290E+01
  1.544065153094E+01  1.523513573273E+01  1.502254770013E+01  1.480312298746E+01
  1.457711703873E+01  1.434480473400E+01  1.410647982297E+01  1.386245424448E+01
  1.361305733203E+01  1.335863490585E+01  1.309954825342E+01  1.283617300125E+01
  1.256889788189E+01  1.229812340115E+01  1.202426041162E+01  1.174772859992E+01
  1.146895489572E+01  1.118837181204E+01  1.090641572705E+01  1.062352511855E+01
  1.034013876304E+01  1.005669391217E+01  9.773624459569E+00  9.491359111858E+00
  9.210319577570E+00  8.930918788060E+00  8.653559164259E+00  8.378630942957E+00
  8.106510575872E+00  7.837559214163E+00  7.572121290296E+00  7.310523208266E+00
  7.053072152114E+00  6.800055021503E+00  6.551737501817E+00  6.308363274904E+00
  6.070153375121E+00  5.837305693910E+00  5.609994634693E+00  5.388370918431E+00
  5.172561538848E+00  4.962669865042E+00  4.758775888045E+00  4.560936606876E+00
  4.369186548780E+00  4.183538417631E+00  4.003983863950E+00  3.830494369609E+00
  3.663022240087E+00  3.501501697017E+00  3.345850063739E+00  3.195969036625E+00
  3.051746034893E+00  2.913055621598E+00  2.779760988239E+00  2.651715495001E+00
  2.528764257949E+00  2.410745773457E+00  2.297493568773E+00  2.188837865851E+00
  2.084607243486E+00  1.984630280348E+00  1.888737336781E+00  1.796762983892E+00
  1.708548761530E+00  1.623944288929E+00  1.542808202334E+00  1.465008885626E+00
  1.390424972861E+00  1.318945601176E+00  1.250470396425E+00  1.184908506176E+00
  1.122174735012E+00  1.062184125321E+00  1.004852136372E+00  9.500947415512E-01
  8.978285659050E-01  8.479710147513E-01  8.004403934655E-01  7.551560185546E-01
  7.120383201702E-01  6.710089362297E-01  6.319907983359E-01  5.949082097047E-01
  5.596869153266E-01  5.262541646042E-01  4.945387667170E-01  4.644711389814E-01
  4.359833484783E-01  4.090091472299E-01  3.834840012147E-01  3.593451135115E-01
  3.365314418667E-01  3.149837109826E-01  2.946444198191E-01  2.754578442071E-01
  2.573700350604E-01  2.403288124776E-01  2.242837560134E-01  2.091861913978E-01
  1.949891739706E-01  1.816474690951E-01  1.691175298029E-01  1.573574719146E-01
  1.463270468724E-01  1.359876125077E-01  1.263021019620E-01  1.172349909643E-01
  1.087522636601E-01  1.008213771795E-01  9.341122511680E-02  8.649210009015E-02
  8.003565553565E-02  7.401486688537E-02  6.840399226737E-02  6.317853285937E-02
  5.831519301918E-02  5.379184030827E-02  4.958746551744E-02  4.568214279728E-02
  4.205698998976E-02  3.869412925122E-02  3.557664805131E-02  3.268856062683E-02
  3.001476996378E-02  2.754103037597E-02  2.525391074287E-02  2.314075846432E-02
  2.118966418464E-02  1.938942733355E-02  1.772952252591E-02  1.620006685775E-02
  1.479178813066E-02  1.349599403184E-02  1.230454229219E-02  1.120981184024E-02
  1.020467496487E-02  9.282470495425E-03  8.436978003665E-03  7.662393027514E-03
  6.953303313115E-03  6.304666067706E-03  5.711786212585E-03  5.170295622199E-03
  4.676133332530E-03  4.225526699315E-03  3.814973484304E-03  3.441224845719E-03
  3.101269207274E-03  2.792316978653E-03  2.511786099101E-03  2.257288374824E-03
  2.026616580215E-03  1.817732292418E-03  1.628754428561E-03  1.457948454912E-03
  1.303716237423E-03  1.164586503443E-03  1.039205884893E-03  9.263305138242E-04
  8.248181420318E-04  7.336207572297E-04  6.517776692218E-04  5.784090404719E-04
  5.127098364928E-04  4.539441725147E-04  4.014400339436E-04  3.545843491700E-04
  3.128183943234E-04  2.756335105849E-04  2.425671156577E-04  2.131989919482E-04
  1.871478349280E-04  1.640680460220E-04  1.436467552050E-04  1.256010592786E-04
  1.096754625546E-04  9.563950738047E-05  8.328558261418E-05  7.242689879209E-05
  6.289561933224E-05  5.454113768453E-05  4.722849087642E-05  4.083690041269E-05
  3.525843197208E-05  3.039676580432E-05  2.616607016969E-05  2.248997058212E-05
  1.930060801715E-05  1.653777962892E-05  1.414815588704E-05  1.208456839605E-05
  1.030536299724E-05  8.773813075955E-06  7.457588307922E-06  6.328274375552E-06
  5.360939470093E-06  4.533743668548E-06  3.827587535189E-06  3.225796546808E-06
  2.713838178625E-06  2.279068714193E-06  1.910507057873E-06  1.598633032671E-06
  1.335207839621E-06  1.113114537621E-06  9.262165749933E-07  7.692325661168E-07
  6.376256587424E-07  5.275059801024E-07  4.355447831446E-07  3.588990383565E-07
  2.951453320934E-07  2.422220393997E-07  1.983788383933E-07  1.621327247281E-07
  1.322297688391E-07  1.076119359857E-07  8.738835992586E-08  7.081052575160E-08
  5.725087637800E-08  4.618441076574E-08  3.717289054107E-08  2.985131560574E-08
  2.391636894567E-08  1.911656648084E-08  1.524387976524E-08  1.212662794578E-08
  9.623460909932E-09  7.618278262854E-09  6.015948931609E-09  4.738714035137E-09
  3.723171407091E-09  2.917754021653E-09  2.280626742305E-09  1.777936467155E-09
  1.382360044860E-09  1.071902431342E-09  8.289045854262E-10  6.392266847724E-10
  4.915774938442E-10  3.769652341319E-10  2.882491840345E-10  2.197745530204E-10
  1.670760043222E-10  1.266376067498E-10  9.569903741248E-11  7.209958105121E-11
  5.415292540362E-11  4.054696677724E-11  3.026395387050E-11  2.251666893129E-11
  1.669856455985E-11  1.234348878769E-11  9.094197657841E-12  6.677908444273E-12
  4.887076454571E-12  3.564278360236E-12  2.590533571568E-12  1.876215905412E-12
  1.354043582422E-12  9.736844613629E-13  6.976189540190E-13  4.979775128509E-13
  0.000000000000E+00  0.000000000000E+00  0.000000000000E+00  0.000000000000E+00
  0.000000000000E+00  0.000000000000E+00  0.000000000000E+00  0.000000000000E+00
  0.000000000000E+00  0.000000000000E+00  0.000000000000E+00  0.000000000000E+00
  0.000000000000E+00  0.000000000000E+00  0.000000000000E+00  0.000000000000E+00
  0.000000000000E+00  0.000000000000E+00  0.000000000000E+00  0.000000000000E+00
  0.000000000000E+00  0.000000000000E+00  0.000000000000E+00  0.000000000000E+00
  0.000000000000E+00  0.000000000000E+00  0.000000000000E+00  0.000000000000E+00
  0.000000000000E+00  0.000000000000E+00  0.000000000000E+00  0.000000000000E+00
  0.000000000000E+00  0.000000000000E+00  0.000000000000E+00  0.000000000000E+00
  0.000000000000E+00  0.000000000000E+00  0.000000000000E+00  0.000000000000E+00
  0.000000000000E+00  0.000000000000E+00  0.000000000000E+00  0.000000000000E+00
  0.000000000000E+00  0.000000000000E+00  0.000000000000E+00  0.000000000000E+00
  0.000000000000E+00  0.000000000000E+00  0.000000000000E+00  0.000000000000E+00
  0.000000000000E+00  0.000000000000E+00  0.000000000000E+00  0.000000000000E+00
  0.000000000000E+00  0.000000000000E+00  0.000000000000E+00  0.000000000000E+00
  0.000000000000E+00  0.000000000000E+00  0.000000000000E+00  0.000000000000E+00
  0.000000000000E+00  0.000000000000E+00  0.000000000000E+00  0.000000000000E+00
  0.000000000000E+00  0.000000000000E+00  0.000000000000E+00  0.000000000000E+00
  0.000000000000E+00  0.000000000000E+00  0.000000000000E+00  0.000000000000E+00
  0.000000000000E+00  0.000000000000E+00  0.000000000000E+00  0.000000000000E+00
  0.000000000000E+00  0.000000000000E+00  0.000000000000E+00  0.000000000000E+00
  0.000000000000E+00  0.000000000000E+00  0.000000000000E+00  0.000000000000E+00
  0.000000000000E+00  0.000000000000E+00  0.000000000000E+00  0.000000000000E+00
  0.000000000000E+00
</data>
</radfunc>
</valence-charge>
<pseudocore-charge matching-radius="0.336125624912"
 number-of-continuous-derivatives="4">
<annotation model-charge-form="Teter function with specified parameters" />
<radfunc>
<data npts="290">
  4.052275605936E+01  4.051432568254E+01  4.048913124010E+01  4.044712089352E+01
  4.038875912090E+01  4.031210272607E+01  4.021454190233E+01  4.010301437484E+01
  3.997785316255E+01  3.983221533973E+01  3.966846910081E+01  3.949098342320E+01
  3.927716940443E+01  3.905466490567E+01  3.879324069506E+01  3.853329677001E+01
  3.823537546580E+01  3.795436958393E+01  3.764007909379E+01  3.728888976070E+01
  3.689688280597E+01  3.655105992957E+01  3.617411500352E+01  3.576363033163E+01
  3.531708071453E+01  3.483184711187E+01  3.430523561807E+01  3.388147337521E+01
  3.343172781368E+01  3.295483750552E+01  3.244965622935E+01  3.191506606116E+01
  3.134999250848E+01  3.075342185152E+01  3.012442084191E+01  2.946215888750E+01
  2.876593281912E+01  2.803519428896E+01  2.752867359636E+01  2.700659256446E+01
  2.646894319911E+01  2.591576969220E+01  2.534717332792E+01  2.476331752774E+01
  2.416443299843E+01  2.355082293997E+01  2.292286826176E+01  2.228103274649E+01
  2.162586809113E+01  2.095801874444E+01  2.027822644917E+01  1.958733438654E+01
  1.888629080882E+01  1.817615203520E+01  1.745808467525E+01  1.673336693482E+01
  1.600338885066E+01  1.526965129373E+01  1.453376357713E+01  1.379743950390E+01
  1.306249169301E+01  1.233082403020E+01  1.160442210355E+01  1.088534150427E+01
  1.017569390052E+01  9.477630827743E+00  8.793325183676E+00  8.457011205374E+00
  8.124950469722E+00  7.797410999877E+00  7.474657883582E+00  7.156952453071E+00
  6.844551440458E+00  6.537706111507E+00  6.236661381008E+00  5.941654913399E+00
  5.652916212638E+00  5.370665705697E+00  5.095113824474E+00  4.826460091230E+00
  4.564892213082E+00  4.310585191373E+00  4.063700452109E+00  3.824385003909E+00
  3.592770630211E+00  3.368973122654E+00  3.153091562786E+00  2.945207659298E+00
  2.745385148109E+00  2.553669262560E+00  2.370086280921E+00  2.194643158238E+00
  2.027327249283E+00  1.868106129026E+00  1.716927516591E+00  1.573719308116E+00
  1.438389723263E+00  1.310827569368E+00  1.190902626332E+00  1.078466154391E+00
  9.733515258024E-01  8.753749803030E-01  7.843365029364E-01  7.000208214746E-01
  6.221985192586E-01  5.506272578012E-01  4.850531019990E-01  4.252119392791E-01
  3.708309825043E-01  3.216303449890E-01  2.773246745687E-01  2.376248323552E-01
  2.022396006133E-01  1.708774031585E-01  1.432480208215E-01  1.190642838889E-01
  9.804372303513E-02  7.991016014617E-02  6.439522060672E-02  5.123974912131E-02
  4.019511195990E-02  3.102436968269E-02  2.350330590130E-02  1.742129946895E-02
  1.258202964607E-02  8.804006233641E-03  5.920919371214E-03  3.781806615019E-03
  2.251037990849E-03  1.208122893409E-03  5.473459085987E-04  1.772417904676E-04
  1.992284856993E-05  1.027480969340E-05  9.503972572133E-05  2.318066247619E-04
  3.879322694041E-04  5.394155267964E-04  6.697494151951E-04  7.687748311003E-04
  8.315592587778E-04  8.573224192894E-04  8.484288511626E-04  8.094648752100E-04
  7.464143512693E-04  6.659441771423E-04  5.748067229145E-04  4.793624677536E-04
  3.852221548212E-04  2.970039540761E-04  2.181975743503E-04  1.511241406449E-04
  9.697808169700E-05  5.593536663863E-05  2.731126966246E-05  9.750475145290E-06
  1.432770708900E-06  2.787785521403E-07  4.142070410234E-06  1.097648336008E-05
  1.897035246419E-05  2.664252514590E-05  3.289822773080E-05  3.704591865726E-05
  3.877899596899E-05  3.812846155707E-05  3.539424890900E-05  3.106380845476E-05
  2.572668247317E-05  1.999321537581E-05  1.442431782792E-05  9.477469194062E-06
  5.472078105847E-06  2.575127887590E-06  8.059228276189E-07  5.692202767337E-08
  1.262678021635E-07  7.568047518518E-07  1.676201462877E-06  2.633218433037E-06
  3.426134278096E-06  3.920708635712E-06  4.056641481846E-06  3.843079516326E-06
  3.345118719022E-06  2.664285156620E-06  1.916522958790E-06  1.211227519475E-06
  6.343586526206E-07  2.377515168820E-07  3.557088764344E-08  0.000000000000E+00
  0.000000000000E+00  0.000000000000E+00  0.000000000000E+00  0.000000000000E+00
  0.000000000000E+00  0.000000000000E+00  0.000000000000E+00  0.000000000000E+00
  0.000000000000E+00  0.000000000000E+00  0.000000000000E+00  0.000000000000E+00
  0.000000000000E+00  0.000000000000E+00  0.000000000000E+00  0.000000000000E+00
  0.000000000000E+00  0.000000000000E+00  0.000000000000E+00  0.000000000000E+00
  0.000000000000E+00  0.000000000000E+00  0.000000000000E+00  0.000000000000E+00
  0.000000000000E+00  0.000000000000E+00  0.000000000000E+00  0.000000000000E+00
  0.000000000000E+00  0.000000000000E+00  0.000000000000E+00  0.000000000000E+00
  0.000000000000E+00  0.000000000000E+00  0.000000000000E+00  0.000000000000E+00
  0.000000000000E+00  0.000000000000E+00  0.000000000000E+00  0.000000000000E+00
  0.000000000000E+00  0.000000000000E+00  0.000000000000E+00  0.000000000000E+00
  0.000000000000E+00  0.000000000000E+00  0.000000000000E+00  0.000000000000E+00
  0.000000000000E+00  0.000000000000E+00  0.000000000000E+00  0.000000000000E+00
  0.000000000000E+00  0.000000000000E+00  0.000000000000E+00  0.000000000000E+00
  0.000000000000E+00  0.000000000000E+00  0.000000000000E+00  0.000000000000E+00
  0.000000000000E+00  0.000000000000E+00  0.000000000000E+00  0.000000000000E+00
  0.000000000000E+00  0.000000000000E+00  0.000000000000E+00  0.000000000000E+00
  0.000000000000E+00  0.000000000000E+00  0.000000000000E+00  0.000000000000E+00
  0.000000000000E+00  0.000000000000E+00  0.000000000000E+00  0.000000000000E+00
  0.000000000000E+00  0.000000000000E+00  0.000000000000E+00  0.000000000000E+00
  0.000000000000E+00  0.000000000000E+00  0.000000000000E+00  0.000000000000E+00
  0.000000000000E+00  0.000000000000E+00  0.000000000000E+00  0.000000000000E+00
  0.000000000000E+00  0.000000000000E+00  0.000000000000E+00  0.000000000000E+00
  0.000000000000E+00  0.000000000000E+00  0.000000000000E+00  0.000000000000E+00
  0.000000000000E+00  0.000000000000E+00
</data>
</radfunc>
</pseudocore-charge>
<semilocal-potentials set="lj">
<slps n="2" l="s" j="0.5" rc="1.30942325042" eref="-1.09217302046">
<radfunc>
<data npts="290">
 -8.923753468421E+00 -8.923921843093E+00 -8.924425101453E+00 -8.925264638948E+00
 -8.926431747972E+00 -8.927966129778E+00 -8.929921271946E+00 -8.932159502751E+00
 -8.934675395972E+00 -8.937608276493E+00 -8.940912728091E+00 -8.944502677441E+00
 -8.948838771939E+00 -8.953364232012E+00 -8.958698317808E+00 -8.964020399128E+00
 -8.970142258768E+00 -8.975938202343E+00 -8.982445478284E+00 -8.989747579586E+00
 -8.997936623681E+00 -9.005194178618E+00 -9.013140206612E+00 -9.021834905103E+00
 -9.031342467588E+00 -9.041731008044E+00 -9.053072367821E+00 -9.062248813033E+00
 -9.072036287586E+00 -9.082468330333E+00 -9.093578972004E+00 -9.105402440289E+00
 -9.117972791162E+00 -9.131323453901E+00 -9.145486675744E+00 -9.160492850434E+00
 -9.176369713320E+00 -9.193141383999E+00 -9.204829414292E+00 -9.216928173851E+00
 -9.229440571675E+00 -9.242367905441E+00 -9.255709621434E+00 -9.269463051329E+00
 -9.283623124537E+00 -9.298182054921E+00 -9.313129000808E+00 -9.328449697402E+00
 -9.344126060932E+00 -9.360135764165E+00 -9.376451783293E+00 -9.393041916634E+00
 -9.409868276154E+00 -9.426886753452E+00 -9.444046462603E+00 -9.461289163127E+00
 -9.478548667341E+00 -9.495750237449E+00 -9.512809978946E+00 -9.529634238242E+00
 -9.546119013820E+00 -9.562149391705E+00 -9.577599017566E+00 -9.592329619262E+00
 -9.606190595114E+00 -9.619018684589E+00 -9.630637739319E+00 -9.635935278525E+00
 -9.640858613458E+00 -9.645382074818E+00 -9.649479193228E+00 -9.653122709210E+00
 -9.656284586155E+00 -9.658936026430E+00 -9.661047490802E+00 -9.662588721328E+00
 -9.663528767881E+00 -9.663836018446E+00 -9.663478233364E+00 -9.662422583646E+00
 -9.660635693504E+00 -9.658083687227E+00 -9.654732240516E+00 -9.650546636384E+00
 -9.645491825705E+00 -9.639532492472E+00 -9.632633123806E+00 -9.624758084732E+00
 -9.615871697663E+00 -9.605938326546E+00 -9.594922465526E+00 -9.582788831942E+00
 -9.569502463387E+00 -9.555028818502E+00 -9.539333881075E+00 -9.522384266893E+00
 -9.504147332735E+00 -9.484591286733E+00 -9.463685299233E+00 -9.441399613131E+00
 -9.417705652575E+00 -9.392576128749E+00 -9.365985141377E+00 -9.337908274447E+00
 -9.308322684590E+00 -9.277207180472E+00 -9.244542291529E+00 -9.210310324370E+00
 -9.174495405243E+00 -9.137083507043E+00 -9.098062459498E+00 -9.057421941421E+00
 -9.015153454159E+00 -8.971250275784E+00 -8.925707395962E+00 -8.878521431984E+00
 -8.829690526986E+00 -8.779214232082E+00 -8.727093374818E+00 -8.673329917181E+00
 -8.617926807187E+00 -8.560887829026E+00 -8.502217457629E+00 -8.441920724498E+00
 -8.380003102615E+00 -8.316470419220E+00 -8.251328806173E+00 -8.184584698528E+00
 -8.116244892729E+00 -8.046316676530E+00 -7.974808043229E+00 -7.901728003083E+00
 -7.827087004770E+00 -7.750897479366E+00 -7.673174518515E+00 -7.593936697172E+00
 -7.513207049374E+00 -7.431014203016E+00 -7.347393676222E+00 -7.262389333811E+00
 -7.176054997506E+00 -7.088456197770E+00 -6.999672048510E+00 -6.909797218411E+00
 -6.818943964487E+00 -6.727244184565E+00 -6.634851436183E+00 -6.541942859892E+00
 -6.448720935656E+00 -6.355414992334E+00 -6.262282382600E+00 -6.169609229808E+00
 -6.077710649907E+00 -5.986930351372E+00 -5.897639520052E+00 -5.810234904701E+00
 -5.725136033387E+00 -5.642781511610E+00 -5.563624395652E+00 -5.488126450810E+00