<?xml version="1.0" encoding="UTF-8" ?>
<psml version="1.1" energy_unit="hartree" length_unit="bohr"
 uuid="3e63d450-53a1-11e8-7752-39a33995996d"
 xmlns="http://esl.cecam.org/PSML/ns/1.1">
<provenance creator="ONCVPSP-3.3.0+psml-3.3.0-73 (fully-relativistic)"
 date="2018-05-09">
<annotation action="semilocal-pseudopotential-generation"
 action-cont="projectors-generation" />
<input-file name="oncvpsp-input">
<![CDATA[# atsym z nc nv iexc psfile
Pd 46 6 3 -116133 upf
# n l f
1 0 2.0
2 0 2.0
2 1 6.0
3 0 2.0
3 1 6.0
3 2 10.0
4 0 2.0
4 1 6.0
4 2 10.0
# lmax
2
# l rc ep ncon nbas qcut
0 1.4 0.0 4 7 8.8
1 1.45 0.0 4 7 8.8
2 1.55 0.0 4 7 8.8
# lloc lpopt rc5 dvloc0
4 5 1.4 0.0
# l nproj debl
0 2 3.0
1 2 1.8
2 2 1.5
# icmod fcfact
3 7.0 1.23
# epsh1 epsh2 depsh
-14.0 12.0 0.02
# rlmax drl
6.0 0.01
 0
]]>
</input-file>
</provenance>
<pseudo-atom-spec atomic-label="Pd" atomic-number="46" z-pseudo="18"
 flavor="Hamann&apos;s oncvpsp" relativity="dirac" spin-dft="no"
 core-corrections="yes">
<annotation pseudo-energy="-128.177386654" />
<exchange-correlation>
<annotation oncvpsp-xc-code="-116133" oncvpsp-xc-type="libxc-interface" />
<libxc-info number-of-functionals="2">
<functional name="Perdew, Burke &amp; Ernzerhof SOL (GGA)" type="exchange"
 id="116" />
<functional name="Perdew, Burke &amp; Ernzerhof SOL (GGA)" type="correlation"
 id="133" />
</libxc-info>
</exchange-correlation>
<valence-configuration total-valence-charge="18">
<shell n="4" l="s" occupation="2" />
<shell n="4" l="p" occupation="6" />
<shell n="4" l="d" occupation="10" />
</valence-configuration>
</pseudo-atom-spec>
<grid npts="457">
<annotation type="sampled from oncvpsp log grid"
 recipe="r(i:1..N) = r1*exp(a*(i-1)) + r=0; resampled"
 recipe-cont="r1: scale; a: step" scale="0.108695652174E-04"
 step="0.119285708653E-01" delta="0.500000000000E-02" rmax="44.3145279533" />
<grid-data>
  0.000000000000E+00  5.000294685022E-03  1.010754857899E-02  1.516293462264E-02
  2.018903507460E-02  2.532475777372E-02  3.065021322792E-02  3.579152166903E-02
  4.080992534112E-02  4.598020733843E-02  5.119122683222E-02  5.631701633006E-02
  6.195605232738E-02  6.735150821743E-02  7.321682852214E-02  7.864914178183E-02
  8.448450483140E-02  8.967670148086E-02  9.518799695324E-02  1.010380022274E-01
  1.072475335217E-01  1.124888205185E-01  1.179862540997E-01  1.237523523875E-01
  1.298002452770E-01  1.361437043330E-01  1.427971741499E-01  1.479998075521E-01
  1.533919922845E-01  1.589806344088E-01  1.647728916001E-01  1.707761823144E-01
  1.769981952897E-01  1.834468993934E-01  1.901305538283E-01  1.970577187110E-01
  2.042372660348E-01  2.116783910330E-01  2.167891541061E-01  2.220233114428E-01
  2.273838422743E-01  2.328737977622E-01  2.384963027354E-01  2.442545574686E-01
  2.501518395041E-01  2.561915055171E-01  2.623769932263E-01  2.687118233508E-01
  2.751996016138E-01  2.818440207951E-01  2.886488628332E-01  2.956180009774E-01
  3.027554019930E-01  3.100651284188E-01  3.175513408793E-01  3.252183004535E-01
  3.330703710996E-01  3.411120221395E-01  3.493478308020E-01  3.577824848289E-01
  3.664207851426E-01  3.752676485791E-01  3.843281106864E-01  3.936073285908E-01
  4.031105839323E-01  4.128432858707E-01  4.228109741648E-01  4.278847058548E-01
  4.330193223250E-01  4.382155541929E-01  4.434741408433E-01  4.487958305334E-01
  4.541813804998E-01  4.596315570658E-01  4.651471357506E-01  4.707289013796E-01
  4.763776481961E-01  4.820941799745E-01  4.878793101342E-01  4.937338618558E-01
  4.996586681980E-01  5.056545722164E-01  5.117224270830E-01  5.178630962080E-01
  5.240774533625E-01  5.303663828029E-01  5.367307793965E-01  5.431715487493E-01
  5.496896073342E-01  5.562858826223E-01  5.629613132137E-01  5.697168489723E-01
  5.765534511600E-01  5.834720925739E-01  5.904737576848E-01  5.975594427770E-01
  6.047301560903E-01  6.119869179634E-01  6.193307609790E-01  6.267627301107E-01
  6.342838828720E-01  6.418952894665E-01  6.495980329401E-01  6.573932093354E-01
  6.652819278474E-01  6.732653109816E-01  6.813444947133E-01  6.895206286499E-01
  6.977948761937E-01  7.061684147080E-01  7.146424356845E-01  7.232181449127E-01
  7.318967626517E-01  7.406795238035E-01  7.495676780892E-01  7.585624902262E-01
  7.676652401089E-01  7.768772229902E-01  7.861997496661E-01  7.956341466621E-01
  8.051817564221E-01  8.148439374991E-01  8.246220647491E-01  8.345175295261E-01
  8.445317398804E-01  8.546661207590E-01  8.649221142081E-01  8.753011795786E-01
  8.858047937335E-01  8.964344512583E-01  9.071916646734E-01  9.180779646495E-01
  9.290949002253E-01  9.402440390280E-01  9.515269674964E-01  9.629452911063E-01
  9.745006345996E-01  9.861946422148E-01  9.980289779214E-01  1.010005325656E+00
  1.022125389564E+00  1.034390894239E+00  1.046803584970E+00  1.059365227990E+00
  1.072077610725E+00  1.084942542054E+00  1.097961852559E+00  1.111137394790E+00
  1.124471043527E+00  1.137964696049E+00  1.151620272402E+00  1.165439715671E+00
  1.179424992259E+00  1.193578092166E+00  1.207901029272E+00  1.222395841623E+00
  1.237064591723E+00  1.251909366823E+00  1.266932279225E+00  1.282135466576E+00
  1.297521092175E+00  1.313091345281E+00  1.328848441424E+00  1.344794622721E+00
  1.360932158194E+00  1.377263344092E+00  1.393790504221E+00  1.410515990272E+00
  1.427442182155E+00  1.444571488341E+00  1.461906346201E+00  1.479449222356E+00
  1.497202613024E+00  1.515169044380E+00  1.533351072913E+00  1.551751285788E+00
  1.570372301217E+00  1.589216768832E+00  1.608287370058E+00  1.627586818499E+00
  1.647117860321E+00  1.666883274644E+00  1.686885873940E+00  1.707128504427E+00
  1.727614046480E+00  1.748345415038E+00  1.769325560019E+00  1.790557466739E+00
  1.812044156340E+00  1.833788686216E+00  1.855794150450E+00  1.878063680256E+00
  1.900600444419E+00  1.923407649752E+00  1.946488541549E+00  1.969846404048E+00
  1.993484560896E+00  2.017406375627E+00  2.041615252134E+00  2.066114635160E+00
  2.090908010782E+00  2.115998906911E+00  2.141390893794E+00  2.167087584520E+00
  2.193092635534E+00  2.219409747160E+00  2.246042664126E+00  2.272995176096E+00
  2.300271118209E+00  2.327874371628E+00  2.355808864087E+00  2.384078570456E+00
  2.412687513302E+00  2.441639763461E+00  2.470939440623E+00  2.500590713910E+00
  2.530597802477E+00  2.560964976107E+00  2.591696555820E+00  2.622796914490E+00
  2.654270477464E+00  2.686121723193E+00  2.718355183872E+00  2.750975446078E+00
  2.783987151431E+00  2.817394997248E+00  2.851203737215E+00  2.885418182062E+00
  2.920043200247E+00  2.955083718650E+00  2.990544723273E+00  3.026431259953E+00
  3.062748435072E+00  3.099501416293E+00  3.136695433289E+00  3.174335778488E+00
  3.212427807830E+00  3.250976941524E+00  3.289988664822E+00  3.329468528800E+00
  3.369422151146E+00  3.409855216959E+00  3.450773479563E+00  3.492182761318E+00
  3.534088954453E+00  3.576498021907E+00  3.619415998170E+00  3.662848990148E+00
  3.706803178030E+00  3.751284816166E+00  3.796300233960E+00  3.841855836767E+00
  3.887958106809E+00  3.934613604090E+00  3.981828967339E+00  4.029610914947E+00
  4.077966245927E+00  4.126901840878E+00  4.176424662968E+00  4.226541758924E+00
  4.277260260031E+00  4.328587383152E+00  4.380530431749E+00  4.433096796930E+00
  4.486293958494E+00  4.540129485995E+00  4.594611039827E+00  4.649746372305E+00
  4.705543328773E+00  4.762009848718E+00  4.819153966903E+00  4.876983814506E+00
  4.935507620280E+00  4.994733711723E+00  5.054670516264E+00  5.115326562459E+00
  5.176710481208E+00  5.238831006983E+00  5.301696979067E+00  5.365317342816E+00
  5.429701150929E+00  5.494857564741E+00  5.560795855517E+00  5.627525405784E+00
  5.695055710653E+00  5.763396379181E+00  5.832557135731E+00  5.902547821360E+00
  5.973378395216E+00  6.045058935959E+00  6.117599643190E+00  6.191010838909E+00
  6.265302968975E+00  6.340486604603E+00  6.416572443858E+00  6.493571313185E+00
  6.571494168943E+00  6.650352098970E+00  6.730156324158E+00  6.810918200048E+00
  6.892649218448E+00  6.975361009070E+00  7.059065341179E+00  7.143774125273E+00
  7.229499414776E+00  7.316253407753E+00  7.404048448646E+00  7.492897030030E+00
  7.582811794390E+00  7.673805535923E+00  7.765891202354E+00  7.859081896782E+00
  7.953390879544E+00  8.048831570098E+00  8.145417548939E+00  8.243162559527E+00
  8.342080510241E+00  8.442185476364E+00  8.543491702080E+00  8.646013602505E+00
  8.749765765735E+00  8.854762954924E+00  8.961020110383E+00  9.068552351708E+00
  9.177374979928E+00  9.287503479688E+00  9.398953521444E+00  9.511740963701E+00
  9.625881855266E+00  9.741392437529E+00  9.858289146779E+00  9.976588616540E+00
  1.009630767994E+01  1.021746337210E+01  1.034007293256E+01  1.046415380775E+01
  1.058972365345E+01  1.071680033729E+01  1.084540194134E+01  1.097554676463E+01
  1.110725332581E+01  1.124054036572E+01  1.137542685011E+01  1.151193197231E+01
  1.165007515597E+01  1.178987605785E+01  1.193135457054E+01  1.207453082539E+01
  1.221942519529E+01  1.236605829764E+01  1.251445099721E+01  1.266462440917E+01
  1.281659990208E+01  1.297039910091E+01  1.312604389012E+01  1.328355641680E+01
  1.344295909380E+01  1.360427460293E+01  1.376752589816E+01  1.393273620894E+01
  1.409992904345E+01  1.426912819197E+01  1.444035773027E+01  1.461364202304E+01
  1.478900572731E+01  1.496647379604E+01  1.514607148159E+01  1.532782433937E+01
  1.551175823145E+01  1.569789933022E+01  1.588627412219E+01  1.607690941165E+01
  1.626983232459E+01  1.646507031249E+01  1.666265115624E+01  1.686260297011E+01
  1.706495420575E+01  1.726973365622E+01  1.747697046010E+01  1.768669410562E+01
  1.789893443488E+01  1.811372164810E+01  1.833108630788E+01  1.855105934357E+01
  1.877367205570E+01  1.899895612037E+01  1.922694359381E+01  1.945766691694E+01
  1.969115891994E+01  1.992745282698E+01  2.016658226090E+01  2.040858124803E+01
  2.065348422301E+01  2.090132603369E+01  2.115214194609E+01  2.140596764944E+01
  2.166283926124E+01  2.192279333237E+01  2.218586685236E+01  2.245209725459E+01
  2.272152242164E+01  2.299418069070E+01  2.327011085899E+01  2.354935218930E+01
  2.383194441557E+01  2.411792774856E+01  2.440734288154E+01  2.470023099612E+01
  2.499663376807E+01  2.529659337329E+01  2.560015249377E+01  2.590735432369E+01
  2.621824257558E+01  2.653286148649E+01  2.685125582432E+01  2.717347089421E+01
  2.749955254495E+01  2.782954717548E+01  2.816350174159E+01  2.850146376249E+01
  2.884348132764E+01  2.918960310357E+01  2.953987834081E+01  2.989435688090E+01
  3.025308916347E+01  3.061612623344E+01  3.098351974824E+01  3.135532198522E+01
  3.173158584904E+01  3.211236487923E+01  3.249771325778E+01  3.288768581687E+01
  3.328233804667E+01  3.368172610323E+01  3.408590681647E+01  3.449493769827E+01
  3.490887695065E+01  3.532778347406E+01  3.575171687575E+01  3.618073747826E+01
  3.661490632799E+01  3.705428520393E+01  3.749893662638E+01  3.794892386589E+01
  3.840431095228E+01  3.886516268371E+01  3.933154463592E+01  3.980352317155E+01
  4.028116544961E+01  4.076453943500E+01  4.125371390822E+01  4.174875847512E+01
  4.224974357682E+01  4.275674049974E+01  4.326982138574E+01  4.378905924237E+01
  4.431452795328E+01
</grid-data>
</grid>
<valence-charge total-charge="18" is-unscreening-charge="yes"
 rescaled-to-z-pseudo="no">
<radfunc>
<data npts="457">
  1.430719191661E+00  1.432676364916E+00  1.438716604629E+00  1.448718567775E+00
  1.462632214538E+00  1.480940435965E+00  1.504295821243E+00  1.531069693791E+00
  1.561212122179E+00  1.596413712135E+00  1.636157205580E+00  1.679433789381E+00
  1.731844107916E+00  1.786706885808E+00  1.851589399771E+00  1.916561975389E+00
  1.991593345166E+00  2.062924514628E+00  2.143355581228E+00  2.234051841823E+00
  2.336327695170E+00  2.427475456236E+00  2.527823486760E+00  2.638300500356E+00
  2.759927260603E+00  2.893824825236E+00  3.041223181148E+00  3.161437958607E+00
  3.290617505211E+00  3.429419097444E+00  3.578544306233E+00  3.738740907376E+00
  3.910804586260E+00  4.095580344407E+00  4.293963493585E+00  4.506900097459E+00
  4.735386690583E+00  4.980469069524E+00  5.153614972053E+00  5.334956114068E+00
  5.524834923999E+00  5.723600792091E+00  5.931608988654E+00  6.149219349127E+00
  6.376794695953E+00  6.614698964645E+00  6.863294998874E+00  7.122941976855E+00
  7.393992428919E+00  7.676788803966E+00  7.971659540628E+00  8.278914597611E+00
  8.598840396868E+00  8.931694133355E+00  9.277697406169E+00  9.637029128242E+00
  1.000981767572E+01  1.039613224394E+01  1.079597338510E+01  1.120926271321E+01
  1.163583177597E+01  1.207541011010E+01  1.252761251786E+01  1.299192562806E+01
  1.346769383461E+01  1.395410474102E+01  1.445017427956E+01  1.470147288213E+01
  1.495473171942E+01  1.520977284869E+01  1.546640482920E+01  1.572442229012E+01
  1.598360551510E+01  1.624372004694E+01  1.650451631621E+01  1.676572929817E+01
  1.702707820200E+01  1.728826619732E+01  1.754898018267E+01  1.780889060111E+01
  1.806765130837E+01  1.832489949898E+01  1.858025569626E+01  1.883332381195E+01
  1.908369128168E+01  1.933092928230E+01  1.957459303734E+01  1.981422221690E+01
  2.004934143801E+01  2.027946087174E+01  2.050407696280E+01  2.072267326758E+01
  2.093472141585E+01  2.113968220121E+01  2.133700680487E+01  2.152613815661E+01
  2.170651243635E+01  2.187756071877E+01  2.203871076251E+01  2.218938894474E+01
  2.232902234039E+01  2.245704094441E+01  2.257288003392E+01  2.267598266554E+01
  2.276580230190E+01  2.284180555935E+01  2.290347506722E+01  2.295031242711E+01
  2.298184125882E+01  2.299761031721E+01  2.299719666280E+01  2.298020886623E+01
  2.294629022515E+01  2.289512196990E+01  2.282642643230E+01  2.273997015038E+01
  2.263556687986E+01  2.251308048172E+01  2.237242765434E+01  2.221358047697E+01
  2.203656873129E+01  2.184148196701E+01  2.162847127765E+01  2.139775075325E+01
  2.114959857749E+01  2.088435773841E+01  2.060243632369E+01  2.030430737418E+01
  1.999050827253E+01  1.966163964733E+01  1.931836377751E+01  1.896140248680E+01
  1.859153452296E+01  1.820959242283E+01  1.781645887013E+01  1.741306255975E+01
  1.700037358899E+01  1.657939840339E+01  1.615117433178E+01  1.571676375204E+01
  1.527724793612E+01  1.483372062909E+01  1.438728142296E+01  1.393902899127E+01
  1.349005425517E+01  1.304143355484E+01  1.259422190314E+01  1.214944639948E+01
  1.170809988194E+01  1.127113489484E+01  1.083945804612E+01  1.041392482508E+01
  9.995334945794E+00  9.584428275046E+00  9.181881395534E+00  8.788304846533E+00
  8.404241073994E+00  8.030163111451E+00  7.666474001569E+00  7.313506956335E+00
  6.971526241646E+00  6.640728759884E+00  6.321246291981E+00  6.013148348926E+00
  5.716445571672E+00  5.431093608441E+00  5.156997389624E+00  4.894015713126E+00
  4.641966321081E+00  4.400632150074E+00  4.169768110790E+00  3.949106103432E+00
  3.738362776902E+00  3.537248679413E+00  3.345470593141E+00  3.162733345316E+00
  2.988740839249E+00  2.823195678015E+00  2.665798439505E+00  2.516248892668E+00
  2.374247671107E+00  2.239497321056E+00  2.111703417108E+00  1.990575527244E+00
  1.875828065928E+00  1.767181038016E+00  1.664360679902E+00  1.567100004141E+00
  1.475139253920E+00  1.388226273765E+00  1.306116802798E+00  1.228574696790E+00
  1.155372085082E+00  1.086289468307E+00  1.021115762610E+00  9.596482958499E-01
  9.016927610144E-01  8.470631318061E-01  7.955815450888E-01  7.470781545969E-01
  7.013909600185E-01  6.583656152805E-01  6.178552195695E-01  5.797200943463E-01
  5.438275493304E-01  5.100516401639E-01  4.782729202074E-01  4.483781886684E-01
  4.202602370311E-01  3.938175955272E-01  3.689542811828E-01  3.455795487718E-01
  3.236076458276E-01  3.029575726920E-01  2.835528484197E-01  2.653212832196E-01
  2.481947579730E-01  2.321090112572E-01  2.170034341915E-01  2.028208733260E-01
  1.895074417091E-01  1.770123381941E-01  1.652876749785E-01  1.542883133115E-01
  1.439717072580E-01  1.342977553642E-01  1.252286600364E-01  1.167287944142E-01
  1.087645764994E-01  1.013043502822E-01  9.431827359361E-02  8.777821240513E-02
  8.165764128969E-02  7.593154975659E-02  7.057635417294E-02  6.556981498672E-02
  6.089095897066E-02  5.652000621231E-02  5.243830158233E-02  4.862825042151E-02
  4.507325819527E-02  4.175767387427E-02  3.866673680890E-02  3.578652687583E-02
  3.310391768461E-02  3.060653264255E-02  2.828270368643E-02  2.612143249943E-02
  2.411235404213E-02  2.224570223590E-02  2.051227764731E-02  1.890341703149E-02
  1.741096460204E-02  1.602724490423E-02  1.474503717745E-02  1.355755110139E-02
  1.245840382902E-02  1.144159821750E-02  1.050150217578E-02  9.632829055135E-03
  8.830619015330E-03  8.090221306021E-03  7.407277408383E-03  6.777704987642E-03
  6.197682611969E-03  5.663635197616E-03  5.172220144079E-03  4.720314126542E-03
  4.305000515855E-03  3.923557398933E-03  3.573446174663E-03  3.252300702320E-03
  2.957916981065E-03  2.688243340411E-03  2.441371122599E-03  2.215525838748E-03
  2.009058781273E-03  1.820439075690E-03  1.648246155349E-03  1.491162642994E-03
  1.347967623351E-03  1.217530291214E-03  1.098803959674E-03  9.908204133897E-04
  8.926845919790E-04  8.035695888057E-04  7.227119506906E-04  6.494072642940E-04
  5.830060151949E-04  5.229097059884E-04  4.685672200412E-04  4.194714179021E-04
  3.751559537411E-04  3.351922995986E-04  2.991869656499E-04  2.667789051439E-04
  2.376370931318E-04  2.114582685802E-04  1.879648299432E-04  1.669028747528E-04
  1.480403742699E-04  1.311654747163E-04  1.160849170768E-04  1.026225679177E-04
  9.061805410969E-05  7.992549476798E-05  7.041232412946E-05  6.195819947173E-05
  5.445398854565E-05  4.780083133665E-05  4.190927129425E-05  3.669845147197E-05
  3.209537130298E-05  2.803420000161E-05  2.445564282630E-05  2.130635667004E-05
  1.853841165743E-05  1.610879562773E-05  1.397895856922E-05  1.211439424473E-05
  1.048425641163E-05  9.061007192956E-06  7.820095300892E-06  6.739661950191E-06
  5.800272427803E-06  4.984671407188E-06  4.277560211493E-06  3.665394339858E-06
  3.136199675762E-06  2.679405895962E-06  2.285695693532E-06  1.946868518871E-06
  1.655717628703E-06  1.405919315069E-06  1.191933264299E-06  1.008913070073E-06
  8.526259950785E-07  7.193811424309E-07  6.059652611948E-07  5.095854699948E-07
  4.278182389681E-07  3.585640232928E-07  3.000069912898E-07  2.505793367633E-07
  2.089297088982E-07  1.738953337904E-07  1.444774396459E-07  1.198196329698E-07
  9.918890577901E-08  8.195898414065E-08  6.759575627336E-08  5.564454417657E-08
  4.571900638595E-08  3.749148111802E-08  3.068459887656E-08  2.506401166651E-08
  2.043210240983E-08  1.662255309444E-08  1.349566371734E-08  1.093432631188E-08
  8.840569373953E-09  7.132597919696E-09  5.742263306440E-09  4.612904916050E-09
  3.697512915448E-09  2.957167649717E-09  2.359716857203E-09  1.878656893992E-09
  1.492188585919E-09  1.182422194790E-09  9.347094372296E-10  7.370835457852E-10
  5.797927416250E-10  3.508970664958E-10  0.000000000000E+00  0.000000000000E+00
  0.000000000000E+00  0.000000000000E+00  0.000000000000E+00  0.000000000000E+00
  0.000000000000E+00  0.000000000000E+00  0.000000000000E+00  0.000000000000E+00
  0.000000000000E+00  0.000000000000E+00  0.000000000000E+00  0.000000000000E+00
  0.000000000000E+00  0.000000000000E+00  0.000000000000E+00  0.000000000000E+00
  0.000000000000E+00  0.000000000000E+00  0.000000000000E+00  0.000000000000E+00
  0.000000000000E+00  0.000000000000E+00  0.000000000000E+00  0.000000000000E+00
  0.000000000000E+00  0.000000000000E+00  0.000000000000E+00  0.000000000000E+00
  0.000000000000E+00  0.000000000000E+00  0.000000000000E+00  0.000000000000E+00
  0.000000000000E+00  0.000000000000E+00  0.000000000000E+00  0.000000000000E+00
  0.000000000000E+00  0.000000000000E+00  0.000000000000E+00  0.000000000000E+00
  0.000000000000E+00  0.000000000000E+00  0.000000000000E+00  0.000000000000E+00
  0.000000000000E+00  0.000000000000E+00  0.000000000000E+00  0.000000000000E+00
  0.000000000000E+00  0.000000000000E+00  0.000000000000E+00  0.000000000000E+00
  0.000000000000E+00  0.000000000000E+00  0.000000000000E+00  0.000000000000E+00
  0.000000000000E+00  0.000000000000E+00  0.000000000000E+00  0.000000000000E+00
  0.000000000000E+00  0.000000000000E+00  0.000000000000E+00  0.000000000000E+00
  0.000000000000E+00  0.000000000000E+00  0.000000000000E+00  0.000000000000E+00
  0.000000000000E+00  0.000000000000E+00  0.000000000000E+00  0.000000000000E+00
  0.000000000000E+00  0.000000000000E+00  0.000000000000E+00  0.000000000000E+00
  0.000000000000E+00  0.000000000000E+00  0.000000000000E+00  0.000000000000E+00
  0.000000000000E+00
</data>
</radfunc>
</valence-charge>
<pseudocore-charge matching-radius="0.634283882872"
 number-of-continuous-derivatives="4">
<annotation model-charge-form="Teter function with specified parameters" />
<radfunc>
<data npts="290">
  1.567593664845E+02  1.567390225329E+02  1.566762562803E+02  1.565723868247E+02
  1.564280283293E+02  1.562383106367E+02  1.559966797783E+02  1.557202142522E+02
  1.554096422490E+02  1.550478456520E+02  1.546405287381E+02  1.541983919546E+02
  1.536648629773E+02  1.531086036675E+02  1.524536725031E+02  1.518009661710E+02
  1.510510633990E+02  1.503419224594E+02  1.495466738193E+02  1.486553924320E+02
  1.476571515976E+02  1.467735278236E+02  1.458071458069E+02  1.447508814491E+02
  1.435971287658E+02  1.423377961338E+02  1.409643102027E+02  1.398538606073E+02
  1.386701437315E+02  1.374090490200E+02  1.360663468554E+02  1.346377042375E+02
  1.331187044877E+02  1.315048715252E+02  1.297916992961E+02  1.279746869742E+02
  1.260493805752E+02  1.240114216452E+02  1.225881121846E+02  1.211116651573E+02
  1.195809369377E+02  1.179948463810E+02  1.163523859971E+02  1.146526339965E+02
  1.128947672242E+02  1.110780749906E+02  1.092019737999E+02  1.072660229626E+02
  1.052699410687E+02  1.032136232807E+02  1.010971593880E+02  9.892085254577E+01
  9.668523859605E+01  9.439110584464E+01  9.203951513900E+01  8.963182006011E+01
  8.716968700803E+01  8.465511492344E+01  8.209045434874E+01  7.947842549090E+01
  7.682213490578E+01  7.412509037998E+01  7.139121354349E+01  6.862484970431E+01
  6.583077435723E+01  6.301419578442E+01  6.018075313728E+01  5.875958621322E+01
  5.733650936960E+01  5.591234458783E+01  5.448793838407E+01  5.306416104684E+01
  5.164190576017E+01  5.022208760787E+01  4.880564245499E+01  4.739352570256E+01
  4.598671091230E+01  4.458618829827E+01  4.319296308310E+01  4.180805371666E+01
  4.043248995607E+01  3.906731080629E+01  3.771356232146E+01  3.637229526794E+01
  3.504456265090E+01  3.373141710728E+01  3.243390816897E+01  3.115307940124E+01
  2.988996542249E+01  2.864558881276E+01  2.742095691975E+01  2.621705857221E+01
  2.503486071241E+01  2.387530496034E+01  2.273930412406E+01  2.162773867212E+01
  2.054145318511E+01  1.948125280537E+01  1.844789970482E+01  1.744210959266E+01
  1.646454828570E+01  1.551582836557E+01  1.459650594794E+01  1.370707759001E+01
  1.284797736334E+01  1.201957411953E+01  1.122216897703E+01  1.045599305706E+01
  9.721205496987E+00  9.017891768691E+00  8.346062329018E+00  7.705651628208E+00
  7.096517500753E+00  6.518440961366E+00  5.971126426445E+00  5.454202378832E+00
  4.967222490559E+00  4.509667214831E+00  4.080945854590E+00  3.680399110716E+00
  3.307302108300E+00  2.960867894379E+00  2.640251395296E+00  2.344553816254E+00
  2.072827459949E+00  1.824080935326E+00  1.597284721625E+00  1.391377047100E+00
  1.205270036131E+00  1.037856073096E+00  8.880143263446E-01  7.546173711531E-01
  6.365378466564E-01  5.326550786165E-01  4.418615976333E-01  3.630694811027E-01
  2.952164470077E-01  2.372716285763E-01  1.882409610216E-01  1.471721150498E-01
  1.131589166081E-01  8.534519843949E-02  6.292803638867E-02  4.516033199037E-02
  3.135271256279E-02  2.087473068909E-02  1.315535641352E-02  7.682767495101E-03
  4.003455399221E-03  1.720677089669E-03  4.922948060057E-04  2.805755565273E-05
  8.638868779379E-05  4.707533214583E-04  1.025687259373E-03  1.632575044077E-03
  2.205268752503E-03  2.685640778917E-03  3.039163085213E-03  3.250602136271E-03
  3.319913002895E-03  3.258408010607E-03  3.085265036251E-03  2.824428394600E-03
  2.501941589578E-03  2.143736483078E-03  1.773888176470E-03  1.413329669565E-03
  1.079005746022E-03  7.834321175653E-04  5.346141954739E-04  3.362704400513E-04
  1.882984713160E-04  8.741829565542E-05  2.792626418565E-05  2.495725637592E-06
  2.965603846451E-06  2.106599009745E-05  4.903981633299E-05  8.013116101564E-05
  1.089230336690E-04  1.315198302115E-04  1.455812855684E-04  1.502249539600E-04
  1.458223990114E-04  1.337198990261E-04  1.159172764901E-04  9.473836750374E-05
  7.252380400765E-05  5.137155588853E-05  3.294363092555E-05  1.834916621021E-05
  8.105661251490E-06  2.172112419273E-06  4.106121353842E-08  8.716792920453E-07
  3.643394804059E-06  7.309384313070E-06  1.093141180214E-05  1.378163097439E-05
  1.540249872142E-05  1.562214173637E-05  1.452857464009E-05  1.241132089178E-05
  9.682605173058E-06  6.791954857150E-06  4.147632745851E-06  2.055985757468E-06
  6.859733639114E-07  6.148647914891E-08  0.000000000000E+00  0.000000000000E+00
  0.000000000000E+00  0.000000000000E+00  0.000000000000E+00  0.000000000000E+00
  0.000000000000E+00  0.000000000000E+00  0.000000000000E+00  0.000000000000E+00
  0.000000000000E+00  0.000000000000E+00  0.000000000000E+00  0.000000000000E+00
  0.000000000000E+00  0.000000000000E+00  0.000000000000E+00  0.000000000000E+00
  0.000000000000E+00  0.000000000000E+00  0.000000000000E+00  0.000000000000E+00
  0.000000000000E+00  0.000000000000E+00  0.000000000000E+00  0.000000000000E+00
  0.000000000000E+00  0.000000000000E+00  0.000000000000E+00  0.000000000000E+00
  0.000000000000E+00  0.000000000000E+00  0.000000000000E+00  0.000000000000E+00
  0.000000000000E+00  0.000000000000E+00  0.000000000000E+00  0.000000000000E+00
  0.000000000000E+00  0.000000000000E+00  0.000000000000E+00  0.000000000000E+00
  0.000000000000E+00  0.000000000000E+00  0.000000000000E+00  0.000000000000E+00
  0.000000000000E+00  0.000000000000E+00  0.000000000000E+00  0.000000000000E+00
  0.000000000000E+00  0.000000000000E+00  0.000000000000E+00  0.000000000000E+00
  0.000000000000E+00  0.000000000000E+00  0.000000000000E+00  0.000000000000E+00
  0.000000000000E+00  0.000000000000E+00  0.000000000000E+00  0.000000000000E+00
  0.000000000000E+00  0.000000000000E+00  0.000000000000E+00  0.000000000000E+00
  0.000000000000E+00  0.000000000000E+00  0.000000000000E+00  0.000000000000E+00
  0.000000000000E+00  0.000000000000E+00  0.000000000000E+00  0.000000000000E+00
  0.000000000000E+00  0.000000000000E+00  0.000000000000E+00  0.000000000000E+00
  0.000000000000E+00  0.000000000000E+00
</data>
</radfunc>
</pseudocore-charge>
<semilocal-potentials set="lj">
<slps n="4" l="s" j="0.5" rc="1.41051599027" eref="-3.13107914903">
<radfunc>
<data npts="290">
 -2.561428990246E+00 -2.566162339383E+00 -2.580747365319E+00 -2.604859081469E+00
 -2.638322183929E+00 -2.682216448434E+00 -2.737985215262E+00 -2.801607190684E+00
 -2.872841510872E+00 -2.955511216160E+00 -3.048180707131E+00 -3.148294153170E+00
 -3.268444408219E+00 -3.392954879037E+00 -3.538568779408E+00 -3.682641765468E+00
 -3.846894755056E+00 -4.000980966345E+00 -4.172363097511E+00 -4.362688105215E+00
 -4.573686560300E+00 -4.758577445843E+00 -4.958794196779E+00 -5.175291918745E+00
 -5.409025602447E+00 -5.660937030462E+00 -5.931939347637E+00 -6.148243129681E+00
 -6.376116359761E+00 -6.615874593042E+00 -6.867801231113E+00 -7.132141403998E+00
 -7.409095517157E+00 -7.698812522418E+00 -8.001382986654E+00 -8.316832047152E+00
 -8.645112357230E+00 -8.986097139101E+00 -9.220376960448E+00 -9.460124810909E+00
 -9.705235955711E+00 -9.955585872774E+00 -1.021102958624E+01 -1.047140106970E+01
 -1.073651272659E+01 -1.100615495465E+01 -1.128009580051E+01 -1.155808070938E+01
 -1.183983237398E+01 -1.212505068507E+01 -1.241341278498E+01 -1.270457322357E+01
 -1.299816421454E+01 -1.329379598825E+01 -1.359105723542E+01 -1.388951563412E+01
 -1.418871845117E+01 -1.448819320686E+01 -1.478744839091E+01 -1.508597421624E+01
 -1.538324339583E+01 -1.567871192787E+01 -1.597181987365E+01 -1.626199211332E+01
 -1.654863906515E+01 -1.683115735574E+01 -1.710893043053E+01 -1.724584136971E+01
 -1.738132909748E+01 -1.751531306789E+01 -1.764771200061E+01 -1.777844389202E+01
 -1.790742602567E+01 -1.803457498187E+01 -1.815980664689E+01 -1.828303622188E+01
 -1.840417823180E+01 -1.852314653466E+01 -1.863985433157E+01 -1.875421417783E+01
 -1.886613799581E+01 -1.897553708993E+01 -1.908232216460E+01 -1.918640334567E+01
 -1.928769020608E+01 -1.938609179681E+01 -1.948151668362E+01 -1.957387299079E+01
 -1.966306845259E+01 -1.974901047358E+01 -1.983160619847E+01 -1.991076259261E+01
 -1.998638653362E+01 -2.005838491503E+01 -2.012666476221E+01 -2.019113336078E+01
 -2.025169839741E+01 -2.030826811248E+01 -2.036075146375E+01 -2.040905829962E+01
 -2.045309954026E+01 -2.049278736431E+01 -2.052803539856E+01 -2.055875890764E+01
 -2.058487498064E+01 -2.060630271152E+01 -2.062296337050E+01 -2.063478056391E+01
 -2.064168038078E+01 -2.064359152532E+01 -2.064044543573E+01 -2.063217639055E+01
 -2.061872160575E+01 -2.060002132625E+01 -2.057601891711E+01 -2.054666096026E+01
 -2.051189736302E+01 -2.047168148473E+01 -2.042597028766E+01 -2.037472451719E+01
 -2.031790891566E+01 -2.025549247273E+01 -2.018744871362E+01 -2.011375602547E+01
 -2.003439802029E+01 -1.994936393206E+01 -1.985864904441E+01 -1.976225514472E+01
 -1.966019099971E+01 -1.955247284794E+01 -1.943912490430E+01 -1.932017987235E+01
 -1.919567946105E+01 -1.906567490341E+01 -1.893022747605E+01 -1.878940902032E+01
 -1.864330246740E+01 -1.849200237191E+01 -1.833561546090E+01 -1.817426120717E+01
 -1.800807243833E+01 -1.783719599512E+01 -1.766179345485E+01 -1.748204193764E+01
 -1.729813501529E+01 -1.711028374424E+01 -1.691871784589E+01 -1.672368705907E+01
 -1.652546269100E+01 -1.632433939418E+01 -1.612063719750E+01 -1.591470382049E+01
 -1.570691729858E+01 -1.549768894568E+01 -1.528746667662E+01 -1.507673870581E+01