<?xml version="1.0" encoding="UTF-8" ?>
<psml version="1.1" energy_unit="hartree" length_unit="bohr"
 uuid="26de52d0-539f-11e8-737e-3b04b7fdf355"
 xmlns="http://esl.cecam.org/PSML/ns/1.1">
<provenance creator="ONCVPSP-3.3.0+psml-3.3.0-73 (fully-relativistic)"
 date="2018-05-09">
<annotation action="semilocal-pseudopotential-generation"
 action-cont="projectors-generation" />
<input-file name="oncvpsp-input">
<![CDATA[# atsym z nc nv iexc psfile
Tc 43 6 4 -116133 upf
# n l f
1 0 2.0
2 0 2.0
2 1 6.0
3 0 2.0
3 1 6.0
3 2 10.0
4 0 2.0
4 1 6.0
4 2 5.0
5 0 2.0
# lmax
2
# l rc ep ncon nbas qcut
0 1.4 0.0 4 8 8.4
1 1.4 0.0 4 8 9.0
2 1.35 0.0 4 8 9.2
# lloc lpopt rc5 dvloc0
4 5 1.2 0.0
# l nproj debl
0 2 1.0
1 2 2.0
2 2 1.5
# icmod fcfact rcfact
3 5.0 1.28
# epsh1 epsh2 depsh
-12.0 12.0 0.02
# rlmax drl
6.0 0.01
 0
]]>
</input-file>
</provenance>
<pseudo-atom-spec atomic-label="Tc" atomic-number="43" z-pseudo="15"
 flavor="Hamann&apos;s oncvpsp" relativity="dirac" spin-dft="no"
 core-corrections="yes">
<annotation pseudo-energy="-80.7168553942" />
<exchange-correlation>
<annotation oncvpsp-xc-code="-116133" oncvpsp-xc-type="libxc-interface" />
<libxc-info number-of-functionals="2">
<functional name="Perdew, Burke &amp; Ernzerhof SOL (GGA)" type="exchange"
 id="116" />
<functional name="Perdew, Burke &amp; Ernzerhof SOL (GGA)" type="correlation"
 id="133" />
</libxc-info>
</exchange-correlation>
<valence-configuration total-valence-charge="15">
<shell n="4" l="s" occupation="2" />
<shell n="4" l="p" occupation="6" />
<shell n="4" l="d" occupation="5" />
<shell n="5" l="s" occupation="2" />
</valence-configuration>
</pseudo-atom-spec>
<grid npts="457">
<annotation type="sampled from oncvpsp log grid"
 recipe="r(i:1..N) = r1*exp(a*(i-1)) + r=0; resampled"
 recipe-cont="r1: scale; a: step" scale="0.116279069767E-04"
 step="0.119285708653E-01" delta="0.500000000000E-02" rmax="44.1318799948" />
<grid-data>
  0.000000000000E+00  5.039441559062E-03  1.006588903305E-02  1.510043866069E-02
  2.010582340092E-02  2.522037856629E-02  3.052388447908E-02  3.564400236410E-02
  4.112942271229E-02  4.634018239958E-02  5.159199851370E-02  5.675791737359E-02
  6.244110089536E-02  6.787879734231E-02  7.291505605902E-02  7.832497934927E-02
  8.413629120847E-02  8.930708755962E-02  9.479566752734E-02  1.006215612614E-01
  1.068054991833E-01  1.120251835497E-01  1.174999587597E-01  1.232422913408E-01
  1.292652570711E-01  1.355825707545E-01  1.422086174500E-01  1.473898075375E-01
  1.527597676953E-01  1.583253755208E-01  1.640937591880E-01  1.700723065768E-01
  1.762686747350E-01  1.826907996852E-01  1.893469065890E-01  1.962455202813E-01
  2.033954761885E-01  2.108059316443E-01  2.158956300580E-01  2.211082141501E-01
  2.264466508725E-01  2.319139788112E-01  2.375133099156E-01  2.432478312702E-01
  2.491208069084E-01  2.551355796704E-01  2.612955731059E-01  2.676042934230E-01
  2.740653314834E-01  2.806823648468E-01  2.874591598636E-01  2.943995738194E-01
  3.015075571297E-01  3.087871555890E-01  3.162425126735E-01  3.238778718995E-01
  3.316975792387E-01  3.397060855918E-01  3.479079493223E-01  3.563078388508E-01
  3.649105353120E-01  3.737209352766E-01  3.827440535379E-01  3.919850259665E-01
  4.014491124334E-01  4.111416998040E-01  4.210683050041E-01  4.261211246641E-01
  4.312345781601E-01  4.364093930980E-01  4.416463058152E-01  4.469460614850E-01
  4.523094142228E-01  4.577371271935E-01  4.632299727198E-01  4.687887323924E-01
  4.744141971812E-01  4.801071675473E-01  4.858684535579E-01  4.916988750006E-01
  4.975992615006E-01  5.035704526386E-01  5.096132980703E-01  5.157286576471E-01
  5.219174015389E-01  5.281804103573E-01  5.345185752816E-01  5.409327981850E-01
  5.474239917632E-01  5.539930796644E-01  5.606409966204E-01  5.673686885798E-01
  5.741771128428E-01  5.810672381969E-01  5.880400450552E-01  5.950965255959E-01
  6.022376839031E-01  6.094645361099E-01  6.167781105432E-01  6.241794478697E-01
  6.316696012442E-01  6.392496364591E-01  6.469206320966E-01  6.546836796818E-01
  6.625398838379E-01  6.704903624440E-01  6.785362467933E-01  6.866786817549E-01
  6.949188259359E-01  7.032578518471E-01  7.116969460693E-01  7.202373094221E-01
  7.288801571352E-01  7.376267190208E-01  7.464782396491E-01  7.554359785249E-01
  7.645012102672E-01  7.736752247904E-01  7.829593274879E-01  7.923548394177E-01
  8.018630974907E-01  8.114854546606E-01  8.212232801165E-01  8.310779594779E-01
  8.410508949917E-01  8.511435057316E-01  8.613572278003E-01  8.716935145340E-01
  8.821538367084E-01  8.927396827489E-01  9.034525589418E-01  9.142939896491E-01
  9.252655175249E-01  9.363687037352E-01  9.476051281801E-01  9.589763897182E-01
  9.704841063948E-01  9.821299156716E-01  9.939154746596E-01  1.005842460356E+00
  1.017912569880E+00  1.030127520718E+00  1.042489050967E+00  1.054998919579E+00
  1.067658906614E+00  1.080470813493E+00  1.093436463255E+00  1.106557700814E+00
  1.119836393224E+00  1.133274429942E+00  1.146873723102E+00  1.160636207779E+00
  1.174563842272E+00  1.188658608379E+00  1.202922511680E+00  1.217357581820E+00
  1.231965872802E+00  1.246749463276E+00  1.261710456835E+00  1.276850982317E+00
  1.292173194105E+00  1.307679272434E+00  1.323371423703E+00  1.339251880788E+00
  1.355322903357E+00  1.371586778197E+00  1.388045819536E+00  1.404702369370E+00
  1.421558797803E+00  1.438617503376E+00  1.455880913417E+00  1.473351484378E+00
  1.491031702190E+00  1.508924082617E+00  1.527031171608E+00  1.545355545667E+00
  1.563899812215E+00  1.582666609962E+00  1.601658609281E+00  1.620878512593E+00
  1.640329054744E+00  1.660013003401E+00  1.679933159442E+00  1.700092357355E+00
  1.720493465643E+00  1.741139387231E+00  1.762033059878E+00  1.783177456596E+00
  1.804575586075E+00  1.826230493108E+00  1.848145259026E+00  1.870323002134E+00
  1.892766878160E+00  1.915480080697E+00  1.938465841666E+00  1.961727431766E+00
  1.985268160947E+00  2.009091378878E+00  2.033200475425E+00  2.057598881130E+00
  2.082290067704E+00  2.107277548516E+00  2.132564879098E+00  2.158155657647E+00
  2.184053525539E+00  2.210262167846E+00  2.236785313860E+00  2.263626737626E+00
  2.290790258478E+00  2.318279741579E+00  2.346099098478E+00  2.374252287660E+00
  2.402743315112E+00  2.431576234893E+00  2.460755149712E+00  2.490284211509E+00
  2.520167622047E+00  2.550409633511E+00  2.581014549113E+00  2.611986723703E+00
  2.643330564387E+00  2.675050531160E+00  2.707151137534E+00  2.739636951184E+00
  2.772512594598E+00  2.805782745734E+00  2.839452138682E+00  2.873525564347E+00
  2.908007871119E+00  2.942903965572E+00  2.978218813159E+00  3.013957438917E+00
  3.050124928184E+00  3.086726427322E+00  3.123767144450E+00  3.161252350183E+00
  3.199187378386E+00  3.237577626926E+00  3.276428558449E+00  3.315745701151E+00
  3.355534649564E+00  3.395801065359E+00  3.436550678144E+00  3.477789286281E+00
  3.519522757717E+00  3.561757030809E+00  3.604498115179E+00  3.647752092561E+00
  3.691525117672E+00  3.735823419084E+00  3.780653300113E+00  3.826021139714E+00
  3.871933393391E+00  3.918396594112E+00  3.965417353241E+00  4.013002361480E+00
  4.061158389818E+00  4.109892290495E+00  4.159210997981E+00  4.209121529957E+00
  4.259630988317E+00  4.310746560176E+00  4.362475518898E+00  4.414825225125E+00
  4.467803127827E+00  4.521416765361E+00  4.575673766545E+00  4.630581851744E+00
  4.686148833964E+00  4.742382619972E+00  4.799291211412E+00  4.856882705949E+00
  4.915165298420E+00  4.974147282001E+00  5.033837049385E+00  5.094243093978E+00
  5.155374011105E+00  5.217238499239E+00  5.279845361230E+00  5.343203505564E+00
  5.407321947631E+00  5.472209811003E+00  5.537876328735E+00  5.604330844679E+00
  5.671582814816E+00  5.739641808593E+00  5.808517510297E+00  5.878219720420E+00
  5.948758357065E+00  6.020143457350E+00  6.092385178838E+00  6.165493800984E+00
  6.239479726596E+00  6.314353483315E+00  6.390125725115E+00  6.466807233816E+00
  6.544408920622E+00  6.622941827670E+00  6.702417129602E+00  6.782846135157E+00
  6.864240288779E+00  6.946611172244E+00  7.029970506311E+00  7.114330152387E+00
  7.199702114215E+00  7.286098539586E+00  7.373531722061E+00  7.462014102726E+00
  7.551558271958E+00  7.642176971222E+00  7.733883094877E+00  7.826689692015E+00
  7.920609968319E+00  8.015657287939E+00  8.111845175394E+00  8.209187317499E+00
  8.307697565309E+00  8.407389936093E+00  8.508278615326E+00  8.610377958710E+00
  8.713702494214E+00  8.818266924145E+00  8.924086127235E+00  9.031175160761E+00
  9.139549262691E+00  9.249223853843E+00  9.360214540089E+00  9.472537114570E+00
  9.586207559945E+00  9.701242050664E+00  9.817656955272E+00  9.935468838736E+00
  1.005469446480E+01  1.017535079838E+01  1.029745500796E+01  1.042102446805E+01
  1.054607676167E+01  1.067262968281E+01  1.080070123900E+01  1.093030965387E+01
  1.106147336972E+01  1.119421105016E+01  1.132854158276E+01  1.146448408175E+01
  1.160205789073E+01  1.174128258542E+01  1.188217797645E+01  1.202476411216E+01
  1.216906128151E+01  1.231509001689E+01  1.246287109709E+01  1.261242555025E+01
  1.276377465686E+01  1.291693995274E+01  1.307194323217E+01  1.322880655096E+01
  1.338755222957E+01  1.354820285633E+01  1.371078129060E+01  1.387531066609E+01
  1.404181439408E+01  1.421031616681E+01  1.438083996081E+01  1.455341004034E+01
  1.472805096083E+01  1.490478757236E+01  1.508364502322E+01  1.526464876350E+01
  1.544782454866E+01  1.563319844325E+01  1.582079682457E+01  1.601064638646E+01
  1.620277414310E+01  1.639720743282E+01  1.659397392201E+01  1.679310160908E+01
  1.699461882838E+01  1.719855425432E+01  1.740493690538E+01  1.761379614824E+01
  1.782516170202E+01  1.803906364244E+01  1.825553240615E+01  1.847459879503E+01
  1.869629398057E+01  1.892064950833E+01  1.914769730243E+01  1.937746967006E+01
  1.960999930610E+01  1.984531929778E+01  2.008346312935E+01  2.032446468690E+01
  2.056835826315E+01  2.081517856230E+01  2.106496070505E+01  2.131774023351E+01
  2.157355311631E+01  2.183243575371E+01  2.209442498275E+01  2.235955808255E+01
  2.262787277954E+01  2.289940725289E+01  2.317420013993E+01  2.345229054161E+01
  2.373371802811E+01  2.401852264444E+01  2.430674491618E+01  2.459842585517E+01
  2.489360696543E+01  2.519233024902E+01  2.549463821201E+01  2.580057387055E+01
  2.611018075700E+01  2.642350292608E+01  2.674058496119E+01  2.706147198073E+01
  2.738620964450E+01  2.771484416023E+01  2.804742229015E+01  2.838399135764E+01
  2.872459925393E+01  2.906929444497E+01  2.941812597831E+01  2.977114349005E+01
  3.012839721193E+01  3.048993797848E+01  3.085581723422E+01  3.122608704103E+01
  3.160080008552E+01  3.198000968655E+01  3.236376980279E+01  3.275213504042E+01
  3.314516066091E+01  3.354290258884E+01  3.394541741990E+01  3.435276242894E+01
  3.476499557809E+01  3.518217552503E+01  3.560436163133E+01  3.603161397090E+01
  3.646399333855E+01  3.690156125862E+01  3.734437999372E+01  3.779251255364E+01
  3.824602270429E+01  3.870497497674E+01  3.916943467646E+01  3.963946789258E+01
  4.011514150729E+01  4.059652320537E+01  4.108368148384E+01  4.157668566165E+01
  4.207560588959E+01  4.258051316026E+01  4.309147931818E+01  4.360857707000E+01
  4.413187999484E+01
</grid-data>
</grid>
<valence-charge total-charge="15" is-unscreening-charge="yes"
 rescaled-to-z-pseudo="no">
<radfunc>
<data npts="457">
  1.043861176610E-01  1.049958212028E-01  1.068194617807E-01  1.098653631728E-01
  1.141073625991E-01  1.196978034146E-01  1.268435903613E-01  1.350548071163E-01
  1.452952975960E-01  1.564198666812E-01  1.690248220524E-01  1.828043728370E-01
  1.995671806404E-01  2.172018633035E-01  2.349484674120E-01  2.555508028218E-01
  2.794880944826E-01  3.023882617917E-01  3.283760682819E-01  3.578901130723E-01
  3.914361600753E-01  4.215655806365E-01  4.549880054327E-01  4.920861905378E-01
  5.332907471172E-01  5.790864226397E-01  6.300191641655E-01  6.719570723428E-01
  7.174167501826E-01  7.667129062238E-01  8.201896076471E-01  8.782228913770E-01
  9.412235298181E-01  1.009639935215E+00  1.083961177275E+00  1.164720076813E+00
  1.252496323286E+00  1.347919545606E+00  1.416118125005E+00  1.488233386193E+00
  1.564492454800E+00  1.645134009183E+00  1.730408484928E+00  1.820578205643E+00
  1.915917423550E+00  2.016712251095E+00  2.123260462318E+00  2.235871140063E+00
  2.354864142249E+00  2.480569357397E+00  2.613325716460E+00  2.753479924756E+00
  2.901384874505E+00  3.057397695246E+00  3.221877396251E+00  3.395182052252E+00
  3.577665481281E+00  3.769673361591E+00  3.971538733529E+00  4.183576832231E+00
  4.406079198325E+00  4.639307016870E+00  4.883483639841E+00  5.138786255074E+00
  5.405336675121E+00  5.683191233474E+00  5.972329793570E+00  6.121100472332E+00
  6.272643898379E+00  6.426930638062E+00  6.583924115767E+00  6.743580181029E+00
  6.905846667537E+00  7.070662945431E+00  7.237959468526E+00  7.407657318266E+00
  7.579667746466E+00  7.753891719100E+00  7.930219463647E+00  8.108530022765E+00
  8.288690817291E+00  8.470557221847E+00  8.653972156604E+00  8.838765698992E+00
  9.024754719459E+00  9.211742545599E+00  9.399518659276E+00  9.587858431573E+00
  9.776522900693E+00  9.965258598091E+00  1.015379742838E+01  1.034185660870E+01
  1.052913867336E+01  1.071533154972E+01  1.090010871134E+01  1.108312941431E+01
  1.126403902292E+01  1.144246943038E+01  1.161803958043E+01  1.179035609523E+01
  1.195901401477E+01  1.212359765245E+01  1.228368157121E+01  1.243883168372E+01
  1.258860647974E+01  1.273255838267E+01  1.287023523663E+01  1.300118192437E+01
  1.312494211490E+01  1.324106013893E+01  1.334908298864E+01  1.344856243666E+01
  1.353905726815E+01  1.362013561768E+01  1.369137740128E+01  1.375237683220E+01
  1.380274500702E+01  1.384211254719E+01  1.387013227893E+01  1.388648193298E+01
  1.389086684372E+01  1.388302262560E+01  1.386271780324E+01  1.382975637027E+01
  1.378398025055E+01  1.372527163447E+01  1.365355516244E+01  1.356879992672E+01
  1.347102126308E+01  1.336028230351E+01  1.323669526199E+01  1.310042242604E+01
  1.295167682837E+01  1.279072257453E+01  1.261787480477E+01  1.243349927111E+01
  1.223801151369E+01  1.203187562415E+01  1.181560258790E+01  1.158974820158E+01
  1.135491056682E+01  1.111172716688E+01  1.086087153792E+01  1.060304955251E+01
  1.033899533909E+01  1.006946686645E+01  9.795241228820E+00  9.517109672384E+00
  9.235872409699E+00  8.952333273543E+00  8.667294266118E+00  8.381550063376E+00
  8.095882537234E+00  7.811055360377E+00  7.527808759308E+00  7.246854480958E+00
  6.968871036712E+00  6.694499285112E+00  6.424338410533E+00  6.158942349284E+00
  5.898816707764E+00  5.644416209780E+00  5.396142701834E+00  5.154343736442E+00
  4.919311744765E+00  4.691283680547E+00  4.470440751337E+00  4.256908594329E+00
  4.050760584271E+00  3.852027515544E+00  3.660709768420E+00  3.476780861227E+00
  3.300188158090E+00  3.130855675905E+00  2.968686112373E+00  2.813562947598E+00
  2.665352484840E+00  2.523905831297E+00  2.389060810027E+00  2.260643795697E+00
  2.138471468051E+00  2.022352478079E+00  1.912089022979E+00  1.807478326989E+00
  1.708314026129E+00  1.614387455797E+00  1.525488840954E+00  1.441408389414E+00
  1.361937289414E+00  1.286868613275E+00  1.215998129494E+00  1.149125026100E+00
  1.086052548493E+00  1.026588555386E+00  9.705459966858E-01  9.177433174669E-01
  8.680047922395E-01  8.211607939591E-01  7.770480023265E-01  7.355095557218E-01
  6.963951513540E-01  6.595610980368E-01  6.248703259366E-01  5.921923575231E-01
  5.614032438156E-01  5.323854698551E-01  5.050278331569E-01  4.792252987070E-01
  4.548788338670E-01  4.318952263465E-01  4.101868881936E-01  3.896716485436E-01
  3.702725376597E-01  3.519175645947E-01  3.345394906007E-01  3.180756002200E-01
  3.024674718040E-01  2.876607490202E-01  2.736049147393E-01  2.602530685233E-01
  2.475617087805E-01  2.354905205007E-01  2.240021693469E-01  2.130621027427E-01
  2.026383584763E-01  1.927013812253E-01  1.832238473029E-01  1.741804978311E-01
  1.655479804593E-01  1.573046996707E-01  1.494306756495E-01  1.419074116211E-01
  1.347177695251E-01  1.278458538375E-01  1.212769033170E-01  1.149971904223E-01
  1.089939281184E-01  1.032551837718E-01  9.776979981725E-02  9.252732086932E-02
  8.751792694350E-02  8.273237244865E-02  7.816193061213E-02  7.379834300083E-02
  6.963377380604E-02  6.566076856700E-02  6.187221701598E-02  5.826131973831E-02
  5.482155835194E-02  5.154666892377E-02  4.843061835377E-02  4.546758347245E-02
  4.265193261228E-02  3.997820942984E-02  3.744111877122E-02  3.503551438983E-02
  3.275638834176E-02  3.059886189961E-02  2.855817783409E-02  2.662969397030E-02
  2.480887782606E-02  2.309130230301E-02  2.147264229593E-02  1.994867213832E-02
  1.851526380077E-02  1.716838576176E-02  1.590410247269E-02  1.471857433913E-02
  1.360805814031E-02  1.256890780791E-02  1.159757548470E-02  1.069061278360E-02
  9.844672168538E-03  9.056508380595E-03  8.322979836814E-03  7.641049933585E-03
  7.007788193238E-03  6.420371199793E-03  5.876083278349E-03  5.372316881546E-03
  4.906572655913E-03  4.476459170122E-03  4.079692296154E-03  3.714094242691E-03
  3.377592247650E-03  3.068216943401E-03  2.784100413866E-03  2.523473967240E-03
  2.284665651634E-03  2.066097543430E-03  1.866282839707E-03  1.683822786810E-03
  1.517403477065E-03  1.365792544936E-03  1.227835792650E-03  1.102453773610E-03
  9.886383598636E-04  8.854493175878E-04  7.920109120852E-04  7.075085612310E-04
  6.311855537372E-04  5.623398460683E-04  5.003209494055E-04  4.445269157513E-04
  3.944014301326E-04  3.494310139175E-04  3.091423425293E-04  2.730996793275E-04
  2.409024261307E-04  2.121827897763E-04  1.866035632323E-04  1.638560190866E-04
  1.436579127121E-04  1.257515920279E-04  1.099022105207E-04  9.589604003284E-05
  8.353887974722E-05  7.265455778255E-05  6.308352183478E-05  5.468151535480E-05
  4.731833581975E-05  4.087667173033E-05  3.525101504219E-05  3.034664581090E-05
  2.607868589535E-05  2.237121862312E-05  1.915647137299E-05  1.637405807639E-05
  1.397027868255E-05  1.189747267305E-05  1.011342375313E-05  8.580812890544E-06
  7.266716920287E-06  6.142149985845E-06  5.181645146129E-06  4.362873542453E-06
  3.666298591842E-06  3.074862751817E-06  2.573704487136E-06  2.149903160212E-06
  1.792249663338E-06  1.491040711650E-06  1.237894819845E-06  1.025588092175E-06
  8.479080631218E-07  6.995239344113E-07  5.758716617721E-07  4.730524512096E-07
  3.877433287572E-07  3.171185490335E-07  2.587807058596E-07  2.107005022095E-07
  1.711642264771E-07  1.387280671482E-07  1.121784782621E-07  9.049788340157E-08
  7.283507630769E-08  5.847974159167E-08  4.684057946929E-08  3.742657409717E-08
  2.983099609324E-08  2.371777636727E-08  1.880993068110E-08  1.487975263531E-08
  1.174052728047E-08  9.239548529183E-09  7.252251251544E-09  5.677293623933E-09
  4.432447216173E-09  3.451171684578E-09  2.679768019112E-09  2.075019290915E-09
  1.602240968829E-09  1.233674314509E-09  9.471663055008E-10  7.250881413141E-10
  5.534518121238E-10  4.211905932692E-10  3.195747982016E-10  2.417387926915E-10
  1.822992470261E-10  1.370479727567E-10  1.027055382633E-10  7.672425555818E-11
  5.713114339980E-11  4.240315504023E-11  3.136836093318E-11  2.310058673869E-11
  1.692710017776E-11  1.239818133990E-11  9.049621815700E-12  6.582369010706E-12
  4.770846632546E-12  3.445497743206E-12  2.479324530684E-12  1.777546811748E-12
  1.269685334275E-12  9.035234476565E-13  6.405184642901E-13  4.523276819518E-13
  3.181882233289E-13  2.229483895669E-13  1.555942370810E-13  1.081511083740E-13
  7.486793434223E-14  5.161393659645E-14  3.543422656359E-14  2.422378976318E-14
  1.648930776854E-14  1.117588024121E-14  7.541496517849E-15  5.066488179761E-15
  3.388497572010E-15  2.255976801612E-15  1.495084569167E-15  9.862264640439E-16
  6.475049608726E-16  4.230976370453E-16  2.751340550824E-16  1.780447793524E-16
  1.146488953202E-16  7.345824075693E-17  4.682902975286E-17  2.970075149124E-17
  1.874004773083E-17  1.176245393047E-17  7.343817084313E-18  4.560524510046E-18
  2.816753121348E-18  1.730196794144E-18  1.056881484251E-18  6.419661609874E-19
  3.877248938305E-19  2.328258648727E-19  1.389967616207E-19  8.249233980873E-20
  4.866617818061E-20  2.853739758631E-20  1.663196037703E-20  9.633465237716E-21
  5.544971557808E-21  3.171473536761E-21  1.802331728168E-21  1.017622522447E-21
  5.707988646818E-22  3.180457003259E-22  1.760237088111E-22  9.675929532770E-23
  5.282240056063E-23  2.863595887368E-23  0.000000000000E+00  0.000000000000E+00
  0.000000000000E+00  0.000000000000E+00  0.000000000000E+00  0.000000000000E+00
  0.000000000000E+00
</data>
</radfunc>
</valence-charge>
<pseudocore-charge matching-radius="0.720237309422"
 number-of-continuous-derivatives="4">
<annotation model-charge-form="Teter function with specified parameters" />
<radfunc>
<data npts="290">
  6.901816896818E+01  6.901165339725E+01  6.899217727722E+01  6.895968812655E+01
  6.891452476393E+01  6.885515332060E+01  6.877950751195E+01  6.869291722402E+01
  6.858542224182E+01  6.846926067860E+01  6.833840110110E+01  6.819625518948E+01
  6.802458821756E+01  6.784544538426E+01  6.766663500561E+01  6.746085504717E+01
  6.722413484216E+01  6.699998795951E+01  6.674828193306E+01  6.646574761465E+01
  6.614876009313E+01  6.586768234529E+01  6.555975207081E+01  6.522254573601E+01
  6.485345080877E+01  6.444965743995E+01  6.400815132400E+01  6.365034115998E+01
  6.326806943613E+01  6.285982954977E+01  6.242404759897E+01  6.195908355102E+01
  6.146323329067E+01  6.093473170090E+01  6.037175694650E+01  5.977243614895E+01
  5.913485265956E+01  5.845705515649E+01  5.798187438788E+01  5.748735499578E+01
  5.697290877089E+01  5.643794983357E+01  5.588189719611E+01  5.530417760407E+01
  5.470422867383E+01  5.408150234308E+01  5.343546865060E+01  5.276561986088E+01
  5.207147494772E+01  5.135258444962E+01  5.060853570733E+01  4.983895849148E+01
  4.904353102488E+01  4.822198639994E+01  4.737411938704E+01  4.649979362386E+01
  4.559894916929E+01  4.467161039767E+01  4.371789420062E+01  4.273801845373E+01
  4.173231069433E+01  4.070121694419E+01  3.964531059756E+01  3.856530127995E+01
  3.746204356713E+01  3.633654543686E+01  3.518997630777E+01  3.460920155697E+01
  3.402367450102E+01  3.343358992112E+01  3.283915394161E+01  3.224058418332E+01
  3.163810989678E+01  3.103197207309E+01  3.042242353081E+01  2.980972897658E+01
  2.919416503760E+01  2.857602026375E+01  2.795559509719E+01  2.733320180740E+01
  2.670916438922E+01  2.608381842197E+01  2.545751088717E+01  2.483059994291E+01
  2.420345465257E+01  2.357645466588E+01  2.294998985017E+01  2.232445987008E+01
  2.170027371362E+01  2.107784916308E+01  2.045761220920E+01  1.983999640711E+01
  1.922544217300E+01  1.861439602057E+01  1.800730973650E+01  1.740463949463E+01
  1.680684490878E+01  1.621438802449E+01  1.562773225034E+01  1.504734122999E+01
  1.447367765643E+01  1.390720203053E+01  1.334837136629E+01  1.279763784605E+01
  1.225544742907E+01  1.172223841788E+01  1.119843998716E+01  1.068447068053E+01
  1.018073688148E+01  9.687631265096E+00  9.205531237973E+00  8.734797374403E+00
  8.275771857479E+00  7.828776934415E+00  7.394113395983E+00  6.972059090501E+00
  6.562867483316E+00  6.166766273195E+00  5.783956077409E+00  5.414609197591E+00
  5.058868478688E+00  4.716846273409E+00  4.388623524582E+00  4.074248977710E+00
  3.773738535714E+00  3.487074767474E+00  3.214206581155E+00  2.955049072611E+00
  2.709483558179E+00  2.477357800133E+00  2.258486431735E+00  2.052651587382E+00
  1.859603741688E+00  1.679062759496E+00  1.510719156862E+00  1.354235570853E+00
  1.209248433751E+00  1.075369844843E+00  9.521896304751E-01  8.392775804884E-01
  7.361858466062E-01  6.424514857263E-01  5.575991285945E-01  4.811437519045E-01
  4.125935296141E-01  3.514527372079E-01  2.972246808308E-01  2.494146217248E-01
  2.075326652674E-01  1.710965831882E-01  1.396345372792E-01  1.126876731522E-01
  8.981255336875E-02  7.058340060103E-02  5.459412339233E-02  4.146009957350E-02
  3.081969545045E-02  2.233550248124E-02  1.569527726937E-02  1.061257525582E-02
  6.827073423473E-03  4.104582543816E-03  2.236754892713E-03  1.040498821625E-03
  3.571169621740E-04  5.119002756239E-05  9.233010052297E-06  1.381549152725E-04
  3.635568809758E-04  6.279064687696E-04  8.886279755468E-04  1.116149690356E-03
  1.291949051333E-03  1.406635595720E-03  1.458109438467E-03  1.449829794105E-03
  1.389223845336E-03  1.286261173665E-03  1.152213154925E-03  9.986103745671E-04
  8.364044531286E-04  6.753339338196E-04  5.234873278335E-04  3.870502978663E-04
  2.702185362981E-04  1.752533892090E-04  1.026538836038E-04  5.141667849283E-05
  1.935466877412E-05  3.445546330126E-06  1.835168750156E-07  5.910463630932E-06
  1.710695135400E-05  3.062832780701E-05  4.387650813218E-05  5.490349360602E-05
  6.244794230838E-05  6.591084953513E-05  6.528031954874E-05  6.101828376820E-05
  5.392368618601E-05  4.498704755362E-05  3.525046683440E-05  2.568515099713E-05
  1.709570166163E-05  1.005692160709E-05  4.885176403510E-06  1.642715310753E-06
  1.701645857724E-07  1.399497919067E-07  1.121896511450E-06  2.651813126688E-06
  4.294471107698E-06  5.693946655173E-06  6.606547320337E-06  6.914214082234E-06
  6.619016061803E-06  5.821794233846E-06  4.689859208348E-06  3.419688153186E-06
  2.200693939729E-06  1.185382488666E-06  4.697260630157E-07  8.561996830334E-08
  0.000000000000E+00  0.000000000000E+00  0.000000000000E+00  0.000000000000E+00
  0.000000000000E+00  0.000000000000E+00  0.000000000000E+00  0.000000000000E+00
  0.000000000000E+00  0.000000000000E+00  0.000000000000E+00  0.000000000000E+00
  0.000000000000E+00  0.000000000000E+00  0.000000000000E+00  0.000000000000E+00
  0.000000000000E+00  0.000000000000E+00  0.000000000000E+00  0.000000000000E+00
  0.000000000000E+00  0.000000000000E+00  0.000000000000E+00  0.000000000000E+00
  0.000000000000E+00  0.000000000000E+00  0.000000000000E+00  0.000000000000E+00
  0.000000000000E+00  0.000000000000E+00  0.000000000000E+00  0.000000000000E+00
  0.000000000000E+00  0.000000000000E+00  0.000000000000E+00  0.000000000000E+00
  0.000000000000E+00  0.000000000000E+00  0.000000000000E+00  0.000000000000E+00
  0.000000000000E+00  0.000000000000E+00  0.000000000000E+00  0.000000000000E+00
  0.000000000000E+00  0.000000000000E+00  0.000000000000E+00  0.000000000000E+00
  0.000000000000E+00  0.000000000000E+00  0.000000000000E+00  0.000000000000E+00
  0.000000000000E+00  0.000000000000E+00  0.000000000000E+00  0.000000000000E+00
  0.000000000000E+00  0.000000000000E+00  0.000000000000E+00  0.000000000000E+00
  0.000000000000E+00  0.000000000000E+00  0.000000000000E+00  0.000000000000E+00
  0.000000000000E+00  0.000000000000E+00
</data>
</radfunc>
</pseudocore-charge>
<semilocal-potentials set="lj">
<slps n="4" l="s" j="0.5" rc="1.40470236937" eref="-2.69294142572">
<radfunc>
<data npts="290">
  5.805012564165E+01  5.799704322038E+01  5.783874890784E+01  5.757594643137E+01
  5.721321043682E+01  5.674088198054E+01  5.614640345023E+01  5.547578455839E+01
  5.465757101613E+01  5.379072151725E+01  5.283508956973E+01  5.182129184979E+01
  5.062935467025E+01  4.942176661594E+01  4.825174346640E+01  4.694694143672E+01
  4.549842804621E+01  4.417592100480E+01  4.274461528358E+01  4.120197771804E+01
  3.954677255917E+01  3.814170137901E+01  3.666569056601E+01  3.512046670718E+01
  3.350858459989E+01  3.183346114592E+01  3.009939026849E+01  2.876322739690E+01
  2.739928492061E+01  2.601030742091E+01  2.459927639894E+01  2.316938907538E+01
  2.172403311987E+01  2.026675770101E+01  1.880124137401E+01  1.733125743617E+01
  1.586063747454E+01  1.439323389966E+01  1.341864766601E+01  1.244832142641E+01
  1.148336447472E+01  1.052486618145E+01  9.573891670755E+00  8.631477760215E+00
  7.698629200205E+00  6.776315244972E+00  5.865466582879E+00  4.966972648201E+00
  4.081679331620E+00  3.210387101268E+00  2.353849540914E+00  1.512772306746E+00
  6.878124992866E-01 -1.204215576640E-01 -9.113701434488E-01 -1.684521588637E+00
 -2.439411364563E+00 -3.175620837165E+00 -3.892775710615E+00 -4.590544188434E+00
 -5.268634881633E+00 -5.926794494886E+00 -6.564805322949E+00 -7.182482590414E+00
 -7.779671668672E+00 -8.356245204484E+00 -8.912100195063E+00 -9.182231981368E+00
 -9.447155044980E+00 -9.706862051287E+00 -9.961346640578E+00 -1.021060334012E+01
 -1.045462747790E+01 -1.069341509836E+01 -1.092696288039E+01 -1.115526805781E+01
 -1.137832834274E+01 -1.159614185203E+01 -1.180870703705E+01 -1.201602261716E+01
 -1.221808751699E+01 -1.241490080796E+01 -1.260646165411E+01 -1.279276926255E+01
 -1.297382283871E+01 -1.314962154655E+01 -1.332016447390E+01 -1.348545060308E+01
 -1.364547878680E+01 -1.380024772954E+01 -1.394975597427E+01 -1.409400189463E+01
 -1.423298369232E+01 -1.436669939981E+01 -1.449514688804E+01 -1.461832387892E+01
 -1.473622796246E+01 -1.484885661820E+01 -1.495620724053E+01 -1.505827716773E+01
 -1.515506371419E+01 -1.524656420542E+01 -1.533277601563E+01 -1.541369660728E+01
 -1.548932357234E+01 -1.555965467492E+01 -1.562468789487E+01 -1.568442147220E+01
 -1.573885395198E+01 -1.578798422960E+01 -1.583181159633E+01 -1.587033578500E+01
 -1.590355701594E+01 -1.593147604315E+01 -1.595409420087E+01 -1.597141345076E+01
 -1.598343642994E+01 -1.599016650023E+01 -1.599160779910E+01 -1.598776529277E+01
 -1.597864483236E+01 -1.596425321380E+01 -1.594459824268E+01 -1.591968880546E+01
 -1.588953494869E+01 -1.585414796845E+01 -1.581354051241E+01 -1.576772669800E+01
 -1.571672225010E+01 -1.566054466323E+01 -1.559921339337E+01 -1.553275008595E+01
 -1.546117884745E+01 -1.538452656911E+01 -1.530282331279E+01 -1.521610276976E+01
 -1.512440280514E+01 -1.502776610138E+01 -1.492624091576E+01 -1.481988196774E+01
 -1.470875147278E+01 -1.459292033979E+01 -1.447246954927E+01 -1.434749172855E+01
 -1.421809293938E+01 -1.408439469047E+01 -1.394653618438E+01 -1.380467680328E+01
 -1.365899883175E+01 -1.350971040654E+01 -1.335704867322E+01 -1.320128311717E+01