<?xml version="1.0" encoding="UTF-8" ?>
<psml version="1.1" energy_unit="hartree" length_unit="bohr"
 uuid="0413e9c0-53b5-11e8-46d7-d2cbffff75ca"
 xmlns="http://esl.cecam.org/PSML/ns/1.1">
<provenance creator="ONCVPSP-3.3.0+psml-3.3.0-73 (fully-relativistic)"
 date="2018-05-09">
<annotation action="semilocal-pseudopotential-generation"
 action-cont="projectors-generation" />
<input-file name="oncvpsp-input">
<![CDATA[# atsym z nc nv iexc psfile
Os 76 10 4 -116133 upf
# n l f
1 0 2.0
2 0 2.0
2 1 6.0
3 0 2.0
3 1 6.0
3 2 10.0
4 0 2.0
4 1 6.0
4 2 10.0
4 3 14.0
5 0 2.0
5 1 6.0
5 2 6.0
6 0 2.0
# lmax
3
# l rc ep ncon nbas qcut
0 1.5 0.0 4 8 8.2
1 1.55 0.0 4 8 8.4
2 1.55 0.0 4 8 8.4
3 2.25 0.5 4 8 6.8
# lloc lpopt rc5 dvloc0
4 5 1.5 0.0
# l nproj debl
0 2 1.1
1 2 2.0
2 2 1.5
3 2 3.0
# icmod fcfact rcfact
3 5.0 1.4
# epsh1 epsh2 depsh
-12.0 12.0 0.02
# rlmax drl
6.0 0.01
 0
]]>
</input-file>
</provenance>
<pseudo-atom-spec atomic-label="Os" atomic-number="76" z-pseudo="16"
 flavor="Hamann&apos;s oncvpsp" relativity="dirac" spin-dft="no"
 core-corrections="yes">
<annotation pseudo-energy="-92.4135859125" />
<exchange-correlation>
<annotation oncvpsp-xc-code="-116133" oncvpsp-xc-type="libxc-interface" />
<libxc-info number-of-functionals="2">
<functional name="Perdew, Burke &amp; Ernzerhof SOL (GGA)" type="exchange"
 id="116" />
<functional name="Perdew, Burke &amp; Ernzerhof SOL (GGA)" type="correlation"
 id="133" />
</libxc-info>
</exchange-correlation>
<valence-configuration total-valence-charge="16">
<shell n="5" l="s" occupation="2" />
<shell n="5" l="p" occupation="6" />
<shell n="5" l="d" occupation="6" />
<shell n="6" l="s" occupation="2" />
</valence-configuration>
</pseudo-atom-spec>
<grid npts="457">
<annotation type="sampled from oncvpsp log grid"
 recipe="r(i:1..N) = r1*exp(a*(i-1)) + r=0; resampled"
 recipe-cont="r1: scale; a: step" scale="0.657894736842E-05"
 step="0.119285708653E-01" delta="0.500000000000E-02" rmax="44.2661643415" />
<grid-data>
  0.000000000000E+00  5.054775556102E-03  1.009651748877E-02  1.514638622830E-02
  2.016700133758E-02  2.529711905544E-02  3.061676245946E-02  3.575245982319E-02
  4.076538655265E-02  4.593002585167E-02  5.113535818743E-02  5.625555354481E-02
  6.188843525909E-02  6.727800270248E-02  7.313692176392E-02  7.856330635186E-02
  8.439230085264E-02  8.957883088678E-02  9.508411148849E-02  1.009277322338E-01
  1.071304866227E-01  1.123660534284E-01  1.178574872674E-01  1.236172926000E-01
  1.296585849917E-01  1.359951209775E-01  1.426413293872E-01  1.478382847836E-01
  1.532245846394E-01  1.588071274791E-01  1.645930631661E-01  1.705898020602E-01
  1.768050245080E-01  1.832466906800E-01  1.899230507651E-01  1.968426555376E-01
  2.040143673083E-01  2.114473712749E-01  2.165525566070E-01  2.217810015337E-01
  2.271356820347E-01  2.326196459418E-01  2.382360146734E-01  2.439879850116E-01
  2.498788309218E-01  2.559119054155E-01  2.620906424599E-01  2.684185589314E-01
  2.748992566183E-01  2.815364242701E-01  2.883338396977E-01  2.952953719233E-01
  3.024249833830E-01  3.097267321818E-01  3.172047744036E-01  3.248633664768E-01
  3.327068675970E-01  3.407397422083E-01  3.489665625442E-01  3.573920112303E-01
  3.660208839494E-01  3.748580921715E-01  3.839086659489E-01  3.931777567795E-01
  4.026706405392E-01  4.123927204844E-01  4.223495303278E-01  4.274177246917E-01
  4.325467373880E-01  4.377372982367E-01  4.429901458155E-01  4.483060275653E-01
  4.536856998961E-01  4.591299282948E-01  4.646394874344E-01  4.702151612836E-01
  4.758577432190E-01  4.815680361376E-01  4.873468525712E-01  4.931950148021E-01
  4.991133549797E-01  5.051027152395E-01  5.111639478224E-01  5.172979151962E-01
  5.235054901786E-01  5.297875560607E-01  5.361450067335E-01  5.425787468143E-01
  5.490896917760E-01  5.556787680773E-01  5.623469132943E-01  5.690950762538E-01
  5.759242171688E-01  5.828353077749E-01  5.898293314682E-01  5.969072834458E-01
  6.040701708471E-01  6.113190128973E-01  6.186548410521E-01  6.260786991447E-01
  6.335916435344E-01  6.411947432568E-01  6.488890801759E-01  6.566757491380E-01
  6.645558581277E-01  6.725305284252E-01  6.806008947663E-01  6.887681055035E-01
  6.970333227696E-01  7.053977226428E-01  7.138624953145E-01  7.224288452583E-01
  7.310979914014E-01  7.398711672982E-01  7.487496213058E-01  7.577346167615E-01
  7.668274321626E-01  7.760293613485E-01  7.853417136847E-01  7.947658142489E-01
  8.043030040199E-01  8.139546400682E-01  8.237220957490E-01  8.336067608980E-01
  8.436100420288E-01  8.537333625331E-01  8.639781628835E-01  8.743459008381E-01
  8.848380516482E-01  8.954561082679E-01  9.062015815671E-01  9.170760005460E-01
  9.280809125525E-01  9.392178835031E-01  9.504884981052E-01  9.618943600824E-01
  9.734370924034E-01  9.851183375123E-01  9.969397575624E-01  1.008903034653E+00
  1.021009871069E+00  1.033261989522E+00  1.045661133396E+00  1.058209066997E+00
  1.070907575801E+00  1.083758466710E+00  1.096763568311E+00  1.109924731131E+00
  1.123243827904E+00  1.136722753839E+00  1.150363426885E+00  1.164167788008E+00
  1.178137801464E+00  1.192275455081E+00  1.206582760542E+00  1.221061753669E+00
  1.235714494713E+00  1.250543068650E+00  1.265549585473E+00  1.280736180499E+00
  1.296105014665E+00  1.311658274841E+00  1.327398174139E+00  1.343326952229E+00
  1.359446875655E+00  1.375760238163E+00  1.392269361021E+00  1.408976593354E+00
  1.425884312474E+00  1.442994924223E+00  1.460310863314E+00  1.477834593674E+00
  1.495568608798E+00  1.513515432104E+00  1.531677617289E+00  1.550057748696E+00
  1.568658441681E+00  1.587482342981E+00  1.606532131097E+00  1.625810516670E+00
  1.645320242870E+00  1.665064085784E+00  1.685044854814E+00  1.705265393071E+00
  1.725728577788E+00  1.746437320722E+00  1.767394568570E+00  1.788603303393E+00
  1.810066543034E+00  1.831787341550E+00  1.853768789649E+00  1.876014015125E+00
  1.898526183306E+00  1.921308497506E+00  1.944364199476E+00  1.967696569870E+00
  1.991308928708E+00  2.015204635853E+00  2.039387091483E+00  2.063859736581E+00
  2.088626053420E+00  2.113689566061E+00  2.139053840853E+00  2.164722486944E+00
  2.190699156787E+00  2.216987546668E+00  2.243591397228E+00  2.270514493995E+00
  2.297760667923E+00  2.325333795938E+00  2.353237801489E+00  2.381476655107E+00
  2.410054374969E+00  2.438975027468E+00  2.468242727798E+00  2.497861640531E+00
  2.527835980218E+00  2.558170011980E+00  2.588868052124E+00  2.619934468750E+00
  2.651373682375E+00  2.683190166563E+00  2.715388448562E+00  2.747973109945E+00
  2.780948787264E+00  2.814320172711E+00  2.848092014784E+00  2.882269118961E+00
  2.916856348389E+00  2.951858624569E+00  2.987280928064E+00  3.023128299201E+00
  3.059405838791E+00  3.096118708857E+00  3.133272133363E+00  3.170871398963E+00
  3.208921855751E+00  3.247428918020E+00  3.286398065036E+00  3.325834841817E+00
  3.365744859918E+00  3.406133798237E+00  3.447007403816E+00  3.488371492662E+00
  3.530231950574E+00  3.572594733981E+00  3.615465870789E+00  3.658851461238E+00
  3.702757678773E+00  3.747190770918E+00  3.792157060169E+00  3.837662944891E+00
  3.883714900230E+00  3.930319479033E+00  3.977483312781E+00  4.025213112535E+00
  4.073515669885E+00  4.122397857924E+00  4.171866632219E+00  4.221929031805E+00
  4.272592180187E+00  4.323863286349E+00  4.375749645785E+00  4.428258641535E+00
  4.481397745233E+00  4.535174518176E+00  4.589596612394E+00  4.644671771743E+00
  4.700407833004E+00  4.756812727000E+00  4.813894479724E+00  4.871661213481E+00
  4.930121148042E+00  4.989282601819E+00  5.049153993041E+00  5.109743840957E+00
  5.171060767049E+00  5.233113496253E+00  5.295910858208E+00  5.359461788507E+00
  5.423775329969E+00  5.488860633928E+00  5.554726961536E+00  5.621383685074E+00
  5.688840289295E+00  5.757106372766E+00  5.826191649240E+00  5.896105949031E+00
  5.966859220419E+00  6.038461531064E+00  6.110923069437E+00  6.184254146270E+00
  6.258465196025E+00  6.333566778377E+00  6.409569579718E+00  6.486484414675E+00
  6.564322227651E+00  6.643094094383E+00  6.722811223515E+00  6.803484958197E+00
  6.885126777696E+00  6.967748299028E+00  7.051361278616E+00  7.135977613960E+00
  7.221609345327E+00  7.308268657471E+00  7.395967881361E+00  7.484719495937E+00
  7.574536129888E+00  7.665430563447E+00  7.757415730208E+00  7.850504718971E+00
  7.944710775599E+00  8.040047304906E+00  8.136527872565E+00  8.234166207035E+00
  8.332976201520E+00  8.432971915938E+00  8.534167578929E+00  8.636577589877E+00
  8.740216520955E+00  8.845099119206E+00  8.951240308637E+00  9.058655192341E+00
  9.167359054649E+00  9.277367363304E+00  9.388695771664E+00  9.501360120924E+00
  9.615376442375E+00  9.730760959684E+00  9.847530091200E+00  9.965700452294E+00
  1.008528885772E+01  1.020631232401E+01  1.032878807190E+01  1.045273352877E+01
  1.057816633111E+01  1.070510432708E+01  1.083356557901E+01  1.096356836596E+01
  1.109513118635E+01  1.122827276058E+01  1.136301203371E+01  1.149936817812E+01
  1.163736059625E+01  1.177700892341E+01  1.191833303049E+01  1.206135302686E+01
  1.220608926318E+01  1.235256233434E+01  1.250079308235E+01  1.265080259934E+01
  1.280261223053E+01  1.295624357729E+01  1.311171850022E+01  1.326905912222E+01
  1.342828783169E+01  1.358942728567E+01  1.375250041310E+01  1.391753041806E+01
  1.408454078307E+01  1.425355527247E+01  1.442459793574E+01  1.459769311097E+01
  1.477286542830E+01  1.495013981344E+01  1.512954149120E+01  1.531109598910E+01
  1.549482914097E+01  1.568076709066E+01  1.586893629574E+01  1.605936353129E+01
  1.625207589367E+01  1.644710080439E+01  1.664446601405E+01  1.684419960621E+01
  1.704633000149E+01  1.725088596151E+01  1.745789659304E+01  1.766739135216E+01
  1.787940004839E+01  1.809395284897E+01  1.831108028316E+01  1.853081324655E+01
  1.875318300551E+01  1.897822120158E+01  1.920595985600E+01  1.943643137427E+01
  1.966966855076E+01  1.990570457337E+01  2.014457302825E+01  2.038630790459E+01
  2.063094359944E+01  2.087851492264E+01  2.112905710171E+01  2.138260578693E+01
  2.163919705637E+01  2.189886742105E+01  2.216165383010E+01  2.242759367606E+01
  2.269672480018E+01  2.296908549778E+01  2.324471452375E+01  2.352365109804E+01
  2.380593491121E+01  2.409160613015E+01  2.438070540371E+01  2.467327386855E+01
  2.496935315498E+01  2.526898539284E+01  2.557221321755E+01  2.587907977616E+01
  2.618962873347E+01  2.650390427828E+01  2.682195112962E+01  2.714381454317E+01
  2.746954031769E+01  2.779917480150E+01  2.813276489912E+01  2.847035807791E+01
  2.881200237484E+01  2.915774640334E+01  2.950763936018E+01  2.986173103250E+01
  3.022007180489E+01  3.058271266655E+01  3.094970521855E+01  3.132110168117E+01
  3.169695490135E+01  3.207731836016E+01  3.246224618049E+01  3.285179313465E+01
  3.324601465227E+01  3.364496682810E+01  3.404870643003E+01  3.445729090719E+01
  3.487077839808E+01  3.528922773886E+01  3.571269847172E+01  3.614125085338E+01
  3.657494586362E+01  3.701384521399E+01  3.745801135655E+01  3.790750749283E+01
  3.836239758275E+01  3.882274635374E+01  3.928861930999E+01  3.976008274171E+01
  4.023720373461E+01  4.072005017942E+01  4.120869078157E+01  4.170319507095E+01
  4.220363341180E+01  4.271007701275E+01  4.322259793690E+01  4.374126911214E+01
  4.426616434149E+01
</grid-data>
</grid>
<valence-charge total-charge="16" is-unscreening-charge="yes"
 rescaled-to-z-pseudo="no">
<radfunc>
<data npts="457">
  8.619908749496E-01  8.628888559949E-01  8.655737459208E-01  8.700548185986E-01
  8.762886916254E-01  8.844920300886E-01  8.949577097267E-01  9.069564421449E-01
  9.204663642308E-01  9.362459549452E-01  9.540643351704E-01  9.734701914884E-01
  9.969767005727E-01  1.021589111745E+00  1.050704619678E+00  1.079869542232E+00
  1.113561195307E+00  1.145603126464E+00  1.181746927457E+00  1.222522265447E+00
  1.268528002073E+00  1.309550628683E+00  1.354739334600E+00  1.404520992231E+00
  1.459366438657E+00  1.519794876093E+00  1.586378633180E+00  1.640732866766E+00
  1.699192133927E+00  1.762067215280E+00  1.829691799939E+00  1.902423919854E+00
  1.980647398758E+00  2.064773292704E+00  2.155241291983E+00  2.252521045506E+00
  2.357113358134E+00  2.469551198690E+00  2.549146461162E+00  2.632655320742E+00
  2.720260243599E+00  2.812150230630E+00  2.908520709465E+00  3.009573357434E+00
  3.115515844004E+00  3.226561479811E+00  3.342928757941E+00  3.464840771511E+00
  3.592524489926E+00  3.726209874426E+00  3.866128811691E+00  4.012513842412E+00
  4.165596659849E+00  4.325606351548E+00  4.492767355631E+00  4.667297101480E+00
  4.849403303270E+00  5.039280873815E+00  5.237108425630E+00  5.443044326201E+00
  5.657222275326E+00  5.879746374238E+00  6.110685659293E+00  6.350068077544E+00
  6.597873887833E+00  6.854028479401E+00  7.118394610777E+00  7.253594952820E+00
  7.390764085273E+00  7.529863443851E+00  7.670848896025E+00  7.813670439257E+00
  7.958271893651E+00  8.104590589895E+00  8.252557053489E+00  8.402094686383E+00
  8.553119447324E+00  8.705539532301E+00  8.859255056706E+00  9.014157740945E+00
  9.170130601429E+00  9.327047649051E+00  9.484773597452E+00  9.643163583552E+00
  9.802062903038E+00  9.961306763690E+00  1.012072005963E+01  1.028011716980E+01
  1.043930178404E+01  1.059806676067E+01  1.075619401912E+01  1.091345447193E+01
  1.106960800006E+01  1.122440347603E+01  1.137757883914E+01  1.152886122748E+01
  1.167796717116E+01  1.182460285149E+01  1.196846443057E+01  1.210923845592E+01
  1.224660234454E+01  1.238022495051E+01  1.250976722028E+01  1.263488293917E+01
  1.275521957249E+01  1.287041920395E+01  1.298011957386E+01  1.308395521845E+01
  1.318155871154E+01  1.327256200829E+01  1.335659789056E+01  1.343330151170E+01
  1.350231203800E+01  1.356327438267E+01  1.361584102675E+01  1.365967392038E+01
  1.369444645614E+01  1.371984550489E+01  1.373557350279E+01  1.374135057715E+01
  1.373691669670E+01  1.372203383072E+01  1.369648810003E+01  1.366009190137E+01
  1.361268598561E+01  1.355414146902E+01  1.348436175605E+01  1.340328435136E+01
  1.331088253826E+01  1.320716690073E+01  1.309218666625E+01  1.296603084704E+01
  1.282882915823E+01  1.268075269265E+01  1.252201433333E+01  1.235286888677E+01
  1.217361292255E+01  1.198458430688E+01  1.178616142138E+01  1.157876206091E+01
  1.136284200824E+01  1.113889328674E+01  1.090744209604E+01  1.066904643977E+01
  1.042429345785E+01  1.017379648004E+01  9.918191820694E+00  9.658135338384E+00
  9.394298786886E+00  9.127365987010E+00  8.858028851044E+00  8.586983293596E+00
  8.314925064177E+00  8.042545537978E+00  7.770527502006E+00  7.499540974052E+00
  7.230239091915E+00  6.963254109954E+00  6.699193539410E+00  6.438636468112E+00
  6.182130094180E+00  5.930186507189E+00  5.683279748968E+00  5.441843184855E+00
  5.206267214629E+00  4.976897350640E+00  4.754032688621E+00  4.537924794369E+00
  4.328777026687E+00  4.126744313779E+00  3.931933396429E+00  3.744403546925E+00
  3.564167767601E+00  3.391194467275E+00  3.225409826223E+00  3.066701407283E+00
  2.914923718714E+00  2.769907155162E+00  2.631470223478E+00  2.499421952495E+00
  2.373563387019E+00  2.253689506487E+00  2.139590828011E+00  2.031054909573E+00
  1.927867727856E+00  1.829814934034E+00  1.736682990276E+00  1.648260190284E+00
  1.564337567796E+00  1.484709697516E+00  1.409175393383E+00  1.337538309395E+00
  1.269607448513E+00  1.205197585339E+00  1.144129608350E+00  1.086230787582E+00
  1.031334973590E+00  9.792827334892E-01  9.299214298022E-01  8.831052475356E-01
  8.386951750982E-01  7.965589440197E-01  7.565709324149E-01  7.186120371123E-01
  6.825695186288E-01  6.483368232917E-01  6.158133863710E-01  5.849044198324E-01
  5.555206880416E-01  5.275782744715E-01  5.009983421898E-01  4.757068906376E-01
  4.516345109497E-01  4.287161418189E-01  4.068908276659E-01  3.861014806528E-01
  3.662946478613E-01  3.474202847584E-01  3.294315358847E-01  3.122845235269E-01
  2.959381449786E-01  2.803538788470E-01  2.654956007314E-01  2.513294084822E-01
  2.378234571420E-01  2.249478035769E-01  2.126742607247E-01  2.009762613141E-01
  1.898287308489E-01  1.792079696005E-01  1.690915433051E-01  1.594581822330E-01
  1.502876882644E-01  1.415608495888E-01  1.332593626294E-01  1.253657607836E-01
  1.178633495673E-01  1.107361477508E-01  1.039688340770E-01  9.754669915879E-02
  9.145560216665E-02  8.568193192407E-02  8.021257204882E-02  7.503486979158E-02
  7.013660824291E-02  6.550598159902E-02  6.113157319702E-02  5.700233605118E-02
  5.310757563672E-02  4.943693472803E-02  4.598038001785E-02  4.272819039637E-02
  3.967094668860E-02  3.679952270177E-02  3.410507744294E-02  3.157904837768E-02
  2.921314561014E-02  2.699934687157E-02  2.492989320923E-02  2.299728527082E-02
  2.119428008188E-02  1.951388821487E-02  1.794937125043E-02  1.649423943317E-02
  1.514224942734E-02  1.388740208209E-02  1.272394012198E-02  1.164634568559E-02
  1.064933764419E-02  9.727868642625E-03  8.877121815809E-03  8.092507145834E-03
  7.369657436987E-03  6.704423897599E-03  6.092871328954E-03  5.531272931879E-03
  5.016104750840E-03  4.544039783333E-03  4.111941788848E-03  3.716858836734E-03
  3.356016635917E-03  3.026811691619E-03  2.726804335231E-03  2.453711673242E-03
  2.205400500012E-03  1.979880217099E-03  1.775295799190E-03  1.589920843430E-03
  1.422150735341E-03  1.270495960662E-03  1.133575588445E-03  1.010110946742E-03
  8.989195082838E-04  7.989089997454E-04  7.090717446839E-04  6.284792469986E-04
  5.562770184805E-04  4.916796517403E-04  4.339661376492E-04  3.824754238539E-04
  3.366022096795E-04  2.957929717082E-04  2.595422130303E-04  2.273889284875E-04
  1.989132778218E-04  1.737334583510E-04  1.515027686751E-04  1.319068549360E-04
  1.146611312696E-04  9.950836627373E-05  8.621642754468E-05  7.457617659591E-05
  6.439950673615E-05  5.551751675415E-05  4.777881351477E-05  4.104793681746E-05
  3.520390009798E-05  3.013884076981E-05  2.575677420177E-05  2.197244551732E-05
  1.871027357994E-05  1.590338170176E-05  1.349270978100E-05  1.142620274185E-05
  9.658070318022E-06  8.148113392478E-06  6.861112279794E-06  5.766272516253E-06
  4.836723905626E-06  4.049068755752E-06  3.382975431821E-06  2.820813546023E-06
  2.347327298837E-06  1.949343683707E-06  1.615512462923E-06  1.336075017039E-06
  1.102659361915E-06  9.080988153983E-07  7.462719786773E-07  6.119618746032E-07
  5.007322559466E-07  4.088192599941E-07  3.330367415720E-07  2.706937641125E-07
  2.195228674747E-07  1.776178617566E-07  1.433800182349E-07  1.154716418963E-07
  9.277611491804E-08  7.436359712655E-08  5.946165817606E-08  4.743019727601E-08
  3.774008010491E-08  2.995498947665E-08  2.371604677765E-08  1.872881559062E-08
  1.475234768840E-08  1.158997514096E-08  9.081591046618E-09  7.097195778912E-09
  5.531516021333E-09  4.299530616328E-09  3.332760732376E-09  2.576202384892E-09
  1.985797240979E-09  1.526353180395E-09  1.169839539035E-09  8.939935678454E-10
  6.811846193252E-10  5.174911249302E-10  3.919527293698E-10  2.959661633213E-10
  2.227987084304E-10  1.671975656375E-10  1.250771931368E-10  9.326983341179E-11
  6.932708730851E-11  5.136259342990E-11  3.792769971652E-11  2.791352845838E-11
  2.047408578611E-11  1.496609452215E-11  1.090207157676E-11  7.913858885767E-12
  5.724376533363E-12  4.125820421439E-12  2.962893353070E-12  2.119953373970E-12
  1.511199740878E-12  1.073205694922E-12  7.515317375056E-13  5.297672106650E-13
  3.719847496725E-13  2.296334873367E-13  1.599002893343E-13  1.108919717864E-13
  7.658906030130E-14  5.267782609558E-14  3.607961042278E-14  2.460633224180E-14
  1.670940030678E-14  1.129747510796E-14  7.604765223911E-15  5.096255312997E-15
  3.399807055252E-15  2.257727829678E-15  1.492379693545E-15  9.818687140011E-16
  6.429385737543E-16  4.189892100941E-16  2.717243247685E-16  1.753562473628E-16
  1.126044178021E-16  7.194575652064E-17  4.573453810310E-17  2.892319362102E-17
  1.819634572695E-17  1.138756660626E-17  7.088575933101E-18  4.388746983556E-18
  2.702386141370E-18  1.654821174150E-18  1.007680100330E-18  6.101449777854E-19
  3.673267779499E-19  2.198626279672E-19  1.308275602081E-19  7.738654042807E-20
  4.550079370367E-20  2.659062085362E-20  1.544408491406E-20  8.914314034090E-21
  5.112969225040E-21  2.913969383668E-21  1.650022979796E-21  9.282274905791E-22
  5.187332213017E-22  2.879547176963E-22  1.587667301643E-22  8.693903340756E-23
  0.000000000000E+00  0.000000000000E+00  0.000000000000E+00  0.000000000000E+00
  0.000000000000E+00  0.000000000000E+00  0.000000000000E+00  0.000000000000E+00
  0.000000000000E+00  0.000000000000E+00  0.000000000000E+00  0.000000000000E+00
  0.000000000000E+00  0.000000000000E+00  0.000000000000E+00  0.000000000000E+00
  0.000000000000E+00
</data>
</radfunc>
</valence-charge>
<pseudocore-charge matching-radius="0.874345900838"
 number-of-continuous-derivatives="4">
<annotation model-charge-form="Teter function with specified parameters" />
<radfunc>
<data npts="290">
  6.922470078634E+01  6.922097132730E+01  6.920982251281E+01  6.919122176661E+01
  6.916535890382E+01  6.913134939374E+01  6.908800041645E+01  6.903835614637E+01
  6.898252887440E+01  6.891741524556E+01  6.884400783631E+01  6.876420311857E+01
  6.866773241242E+01  6.856695280075E+01  6.844803461671E+01  6.832923688788E+01
  6.819239675490E+01  6.806264604007E+01  6.791673394155E+01  6.775268690307E+01
  6.756830097727E+01  6.740450541895E+01  6.722473848086E+01  6.702749004242E+01
  6.681111710889E+01  6.657383423093E+01  6.631370370522E+01  6.610235522288E+01
  6.587602837897E+01  6.563371754040E+01  6.537435814922E+01  6.509682462980E+01
  6.479992846019E+01  6.448241646157E+01  6.414296936892E+01  6.378020075552E+01
  6.339265639530E+01  6.297881415888E+01  6.268752720675E+01  6.238335987806E+01
  6.206581202397E+01  6.173437105415E+01  6.138851239071E+01  6.102770003038E+01
  6.065138722604E+01  6.025901729938E+01  5.985002459716E+01  5.942383560432E+01
  5.897987022798E+01  5.851754326688E+01  5.803626608154E+01  5.753544848118E+01
  5.701450084357E+01  5.647283648479E+01  5.590987429580E+01  5.532504166322E+01
  5.471777769115E+01  5.408753674110E+01  5.343379230596E+01  5.275604123354E+01
  5.205380831334E+01  5.132665123909E+01  5.057416595671E+01  4.979599240505E+01
  4.899182065290E+01  4.816139743187E+01  4.730453305938E+01  4.686614534172E+01
  4.642110874050E+01  4.596942073973E+01  4.551108423021E+01  4.504610776677E+01
  4.457450582986E+01  4.409629909116E+01  4.361151468271E+01  4.312018646923E+01
  4.262235532295E+01  4.211806940055E+01  4.160738442147E+01  4.109036394693E+01
  4.056707965895E+01  4.003761163861E+01  3.950204864257E+01  3.896048837701E+01
  3.841303776800E+01  3.785981322719E+01  3.730094091165E+01  3.673655697679E+01
  3.616680782088E+01  3.559185031996E+01  3.501185205167E+01  3.442699150640E+01
  3.383745828438E+01  3.324345327672E+01  3.264518882909E+01  3.204288888583E+01
  3.143678911290E+01  3.082713699761E+01  3.021419192318E+01  2.959822521602E+01
  2.897952016376E+01  2.835837200171E+01  2.773508786576E+01  2.710998670942E+01
  2.648339918275E+01  2.585566747113E+01  2.522714509151E+01  2.459819664400E+01
  2.396919751676E+01  2.334053354202E+01  2.271260060119E+01  2.208580417735E+01
  2.146055885313E+01  2.083728775243E+01  2.021642192454E+01  1.959839966930E+01
  1.898366580235E+01  1.837267085946E+01  1.776587023965E+01  1.716372328668E+01
  1.656669230910E+01  1.597524153930E+01  1.538983603252E+01  1.481094050699E+01
  1.423901812711E+01  1.367452923189E+01  1.311793001142E+01  1.256967113475E+01
  1.203019633311E+01  1.149994094299E+01  1.097933041420E+01  1.046877878869E+01
  9.968687156694E+00  9.479442096993E+00  9.001414109354E+00  8.534956047287E+00
  8.080401560239E+00  7.638063554819E+00  7.208232685235E+00  6.791175883683E+00
  6.387134941902E+00  5.996325155517E+00  5.618934043165E+00  5.255120152633E+00
  4.905011966436E+00  4.568706919278E+00  4.246270539816E+00  3.937735728914E+00
  3.643102186250E+00  3.362335996645E+00  3.095369386797E+00  2.842100662304E+00
  2.602394333825E+00  2.376081440034E+00  2.162960073664E+00  1.962796115345E+00
  1.775324178226E+00  1.600248764438E+00  1.437245632374E+00  1.285963371558E+00
  1.146025179501E+00  1.017030832484E+00  8.985588396893E-01  7.901687675058E-01
  6.914037182500E-01  6.017929449893E-01  5.208545816778E-01  4.480984654611E-01
  3.830290258283E-01  3.251482133475E-01  2.739584390524E-01  2.289654942196E-01
  1.896814193367E-01  1.556272905566E-01  1.263358919080E-01  1.013542420316E-01
  8.024594525551E-02  6.259333844285E-02  4.799940724092E-02  3.608944814082E-02
  2.651245609245E-02  1.894222128800E-02  1.307812307421E-02  8.645613717106E-03
  5.396389840080E-03  3.108254690898E-03  1.584679852062E-03  6.540804687706E-04
  1.688233933379E-04  3.992693092298E-06  5.594159525555E-05  2.406640035906E-04
  4.920220806412E-04  7.598689208880E-04  1.008106936249E-03  1.212723151114E-03
  1.359842102738E-03  1.443835440454E-03  1.465524626576E-03  1.430509415431E-03
  1.347650117502E-03  1.227726176618E-03  1.082287470688E-03  9.227081956089E-04
  7.594464399103E-04  6.015058556041E-04  4.560894383195E-04  3.284296041627E-04
  2.217737331374E-04  1.375003522946E-04  7.533832773230E-05  3.365994215418E-05
  9.818610798871E-06  5.032212086173E-07  2.083587637906E-06  1.092513421260E-05
  2.365544238556E-05  3.737044315403E-05  4.977348828350E-05  5.924596147772E-05
  6.485315430109E-05  6.629352018911E-05  6.380286670165E-05  5.802735197044E-05
  4.988020084288E-05  4.039682975032E-05  3.060164663500E-05  2.139734868488E-05
  1.348433434512E-05  7.314197365726E-06  3.077534181774E-06  7.228284293645E-07
  3.024506335211E-10  5.226050532748E-07  1.833205194588E-06  3.473439271702E-06
  5.040253459893E-06  6.228617356368E-06  6.855092555815E-06  6.861788458092E-06
  6.302573643371E-06  5.315602406166E-06  4.087695530548E-06  2.816716489266E-06
  1.677768204548E-06  7.978920175880E-07  2.421893072191E-07  1.220526715277E-08
  0.000000000000E+00  0.000000000000E+00  0.000000000000E+00  0.000000000000E+00
  0.000000000000E+00  0.000000000000E+00  0.000000000000E+00  0.000000000000E+00
  0.000000000000E+00  0.000000000000E+00  0.000000000000E+00  0.000000000000E+00
  0.000000000000E+00  0.000000000000E+00  0.000000000000E+00  0.000000000000E+00
  0.000000000000E+00  0.000000000000E+00  0.000000000000E+00  0.000000000000E+00
  0.000000000000E+00  0.000000000000E+00  0.000000000000E+00  0.000000000000E+00
  0.000000000000E+00  0.000000000000E+00  0.000000000000E+00  0.000000000000E+00
  0.000000000000E+00  0.000000000000E+00  0.000000000000E+00  0.000000000000E+00
  0.000000000000E+00  0.000000000000E+00  0.000000000000E+00  0.000000000000E+00
  0.000000000000E+00  0.000000000000E+00  0.000000000000E+00  0.000000000000E+00
  0.000000000000E+00  0.000000000000E+00
</data>
</radfunc>
</pseudocore-charge>
<semilocal-potentials set="lj">
<slps n="5" l="s" j="0.5" rc="1.51351543210" eref="-3.35819551674">
<radfunc>
<data npts="290">
  4.089349199340E+00  4.083530266501E+00  4.066147488482E+00  4.037186862220E+00
  3.997004180071E+00  3.944313753413E+00  3.877398960625E+00  3.801102054055E+00
  3.715727632361E+00  3.616715865528E+00  3.505814259628E+00  3.386106957483E+00
  3.242582017419E+00  3.094010221189E+00  2.920464991270E+00  2.748976568509E+00
  2.553734687516E+00  2.370835129604E+00  2.167697200909E+00  1.942465335460E+00
  1.693208162970E+00  1.475171083568E+00  1.239457822279E+00  9.850399343885E-01
  7.109044781622E-01  4.160706250342E-01  9.960878604850E-02 -1.524497299024E-01
 -4.174847091282E-01 -6.957862074820E-01 -9.876009876228E-01 -1.293125726167E+00
 -1.612500017578E+00 -1.945799269799E+00 -2.293027603260E+00 -2.654110880594E+00
 -3.028890008438E+00 -3.417114664045E+00 -3.683233505304E+00 -3.955048047436E+00
 -4.232409741368E+00 -4.515148882123E+00 -4.803074241471E+00 -5.095972806299E+00
 -5.393609629781E+00 -5.695727801332E+00 -6.002048540157E+00 -6.312271415755E+00
 -6.626074697206E+00 -6.943115831414E+00 -7.263032048661E+00 -7.585441092019E+00
 -7.909942065236E+00 -8.236116391891E+00 -8.563528876708E+00 -8.891728858230E+00
 -9.220251440400E+00 -9.548618789146E+00 -9.876341478869E+00 -1.020291987268E+01
 -1.052784551962E+01 -1.085060255154E+01 -1.117066906248E+01 -1.148751845340E+01
 -1.180062072598E+01 -1.210944370993E+01 -1.241345420983E+01 -1.256348813582E+01
 -1.271211905901E+01 -1.285928049401E+01 -1.300490606998E+01 -1.314892955410E+01
 -1.329128487322E+01 -1.343190613359E+01 -1.357072763869E+01 -1.370768390518E+01
 -1.384270967704E+01 -1.397573993777E+01 -1.410670992087E+01 -1.423555511857E+01
 -1.436221128893E+01 -1.448661446126E+01 -1.460870094018E+01 -1.472840730827E+01
 -1.484567042743E+01 -1.496042743921E+01 -1.507261576413E+01 -1.518217310032E+01
 -1.528903742139E+01 -1.539314697408E+01 -1.549444027563E+01 -1.559285611114E+01
 -1.568833353127E+01 -1.578081185043E+01 -1.587023064568E+01 -1.595652975680E+01
 -1.603964928755E+01 -1.611952960866E+01 -1.619611136264E+01 -1.626933547094E+01
 -1.633914314361E+01 -1.640547589180E+01 -1.646827554352E+01 -1.652748426297E+01
 -1.658304457371E+01 -1.663489938601E+01 -1.668299202881E+01 -1.672726628651E+01
 -1.676766644098E+01 -1.680413731898E+01 -1.683662434546E+01 -1.686507360286E+01
 -1.688943189672E+01 -1.690964682794E+01 -1.692566687165E+01 -1.693744146318E+01
 -1.694492109112E+01 -1.694805739759E+01 -1.694680328598E+01 -1.694111303610E+01
 -1.693094242696E+01 -1.691624886714E+01 -1.689699153291E+01 -1.687313151413E+01
 -1.684463196800E+01 -1.681145828100E+01 -1.677357823893E+01 -1.673096220559E+01
 -1.668358331049E+01 -1.663141764590E+01 -1.657444447437E+01 -1.651264644730E+01
 -1.644600983601E+01 -1.637452477677E+01 -1.629818553169E+01 -1.621699076784E+01
 -1.613094385741E+01 -1.604005320238E+01 -1.594433258766E+01 -1.584380156775E+01
 -1.573848589231E+01 -1.562841797754E+01 -1.551363743094E+01 -1.539419163841E+01
 -1.527013642402E+01 -1.514153679410E+01 -1.500846777912E+01 -1.487101538850E+01
 -1.472927769528E+01 -1.458336606992E+01 -1.443340658398E+01 -1.427954160707E+01