Al    ONCVPSP-3.3.0  r_core=   1.40948   1.60710   1.81071
13.0000     11.0000      180430    zatom,zion,pspd
8 -116133   2     4   600     0    pspcod,pspxc,lmax,lloc,mmax,r2well
5.99000000  0.00000000  0.00000000    rchrg fchrg qchrg
2     2     2     0    nproj
3     1           extension_switch
3     4     0    nprojso
0                        -9.1174378169185D-01  1.7793855947495D+00
1  0.0000000000000D+00  2.7163538085517D-10 -8.4351825524465D-10
2  1.0000000000000D-02  2.9675530343343D-02  1.1697860341752D-01
3  2.0000000000000D-02  5.9410869172382D-02  2.3337685860164D-01
4  3.0000000000000D-02  8.9265043361423D-02  3.4861783474621D-01
5  4.0000000000000D-02  1.1929552374009D-01  4.6213141143377D-01
6  5.0000000000000D-02  1.4955746494649D-01  5.7335762288137D-01
7  6.0000000000000D-02  1.8010296653647D-01  6.8174992965261D-01
8  7.0000000000000D-02  2.1098036211225D-01  7.8677839465717D-01
9  8.0000000000000D-02  2.4223354296214D-01  8.8793274110350D-01
10  9.0000000000000D-02  2.7390132236906D-01  9.8472527110702D-01
11  1.0000000000000D-01  3.0601684635249D-01  1.0766936248772D+00
12  1.1000000000000D-01  3.3860705616093D-01  1.1634033617980D+00
13  1.2000000000000D-01  3.7169220733429D-01  1.2444503462619D+00
14  1.3000000000000D-01  4.0528544961304D-01  1.3194629228057D+00
15  1.4000000000000D-01  4.3939247138994D-01  1.3881038669032D+00
16  1.5000000000000D-01  4.7401121178567D-01  1.4500720996821D+00
17  1.6000000000000D-01  5.0913164278897D-01  1.5051041568271D+00
18  1.7000000000000D-01  5.4473562324180D-01  1.5529754039910D+00
19  1.8000000000000D-01  5.8079682577641D-01  1.5935009931336D+00
20  1.9000000000000D-01  6.1728073713237D-01  1.6265365563300D+00
21  2.0000000000000D-01  6.5414473160365D-01  1.6519786357118D+00
22  2.1000000000000D-01  6.9133821669569D-01  1.6697648502997D+00
23  2.2000000000000D-01  7.2880284941778D-01  1.6798738025455D+00
24  2.3000000000000D-01  7.6647282100233D-01  1.6823247293934D+00
25  2.4000000000000D-01  8.0427520723706D-01  1.6771769045832D+00
26  2.5000000000000D-01  8.4213038102428D-01  1.6645288007318D+00
27  2.6000000000000D-01  8.7995248324873D-01  1.6445170214240D+00
28  2.7000000000000D-01  9.1764994754745D-01  1.6173150151155D+00
29  2.8000000000000D-01  9.5512607413561D-01  1.5831315840661D+00
30  2.9000000000000D-01  9.9227964745596D-01  1.5422092027941D+00
31  3.0000000000000D-01  1.0290055920890D+00  1.4948221616418D+00
32  3.1000000000000D-01  1.0651956610898D+00  1.4412745519715D+00
33  3.2000000000000D-01  1.1007391507055D+00  1.3818981102652D+00
34  3.3000000000000D-01  1.1355236352800D+00  1.3170499389704D+00
35  3.4000000000000D-01  1.1694357160656D+00  1.2471101223253D+00
36  3.5000000000000D-01  1.2023617776357D+00  1.1724792556083D+00
37  3.6000000000000D-01  1.2341887456334D+00  1.0935759062867D+00
38  3.7000000000000D-01  1.2648048396843D+00  1.0108340254051D+00
39  3.8000000000000D-01  1.2941003154608D+00  9.2470032725169D-01
40  3.9000000000000D-01  1.3219681900923D+00  8.3563165488553D-01
41  4.0000000000000D-01  1.3483049453781D+00  7.4409234851199D-01
42  4.1000000000000D-01  1.3730112035698D+00  6.5055163296332D-01
43  4.2000000000000D-01  1.3959923708404D+00  5.5548103969943D-01
44  4.3000000000000D-01  1.4171592439484D+00  4.5935187779753D-01
45  4.4000000000000D-01  1.4364285760299D+00  3.6263276736992D-01
46  4.5000000000000D-01  1.4537235979011D+00  2.6578724774976D-01
47  4.6000000000000D-01  1.4689744917271D+00  1.6927147163487D-01
48  4.7000000000000D-01  1.4821188144047D+00  7.3531995195269D-02
49  4.8000000000000D-01  1.4931018685035D+00 -2.0996327052136D-02
50  4.9000000000000D-01  1.5018770191168D+00 -1.1389233500031D-01
51  5.0000000000000D-01  1.5084059554765D+00 -2.0475043692508D-01
52  5.1000000000000D-01  1.5126588966841D+00 -2.9318235941598D-01
53  5.2000000000000D-01  1.5146147413942D+00 -3.7881876911679D-01
54  5.3000000000000D-01  1.5142611617568D+00 -4.6131076318014D-01
55  5.4000000000000D-01  1.5115946423726D+00 -5.4033122632472D-01
56  5.5000000000000D-01  1.5066204654356D+00 -6.1557605328710D-01
57  5.6000000000000D-01  1.4993526436336D+00 -6.8676523627598D-01
58  5.7000000000000D-01  1.4898138027362D+00 -7.5364381776041D-01
59  5.8000000000000D-01  1.4780350161253D+00 -8.1598270954616D-01
60  5.9000000000000D-01  1.4640555938157D+00 -8.7357937961863D-01
61  6.0000000000000D-01  1.4479228287617D+00 -9.2625840865165D-01
62  6.1000000000000D-01  1.4296917034576D+00 -9.7387191840403D-01
63  6.2000000000000D-01  1.4094245600152D+00 -1.0162998744496D+00
64  6.3000000000000D-01  1.3871907370309D+00 -1.0534502658205D+00
65  6.4000000000000D-01  1.3630661766530D+00 -1.0852591641910D+00
66  6.5000000000000D-01  1.3371330053164D+00 -1.1116906651993D+00
67  6.6000000000000D-01  1.3094790916326D+00 -1.1327367144107D+00
68  6.7000000000000D-01  1.2801975849176D+00 -1.1484168202687D+00
69  6.8000000000000D-01  1.2493864377920D+00 -1.1587776561853D+00
70  6.9000000000000D-01  1.2171479162262D+00 -1.1638925536882D+00
71  7.0000000000000D-01  1.1835881003057D+00 -1.1638608882909D+00
72  7.1000000000000D-01  1.1488163788800D+00 -1.1588073594924D+00
73  7.2000000000000D-01  1.1129449411274D+00 -1.1488811660596D+00
74  7.3000000000000D-01  1.0760882679213D+00 -1.1342550775051D+00
75  7.4000000000000D-01  1.0383626257301D+00 -1.1151244024722D+00
76  7.5000000000000D-01  9.9988556561836D-01 -1.0917058545632D+00
77  7.6000000000000D-01  9.6077542975337D-01 -1.0642363160397D+00
78  7.7000000000000D-01  9.2115086765337D-01 -1.0329714997579D+00
79  7.8000000000000D-01  8.8113036425089D-01 -9.9818450971512D-01
80  7.9000000000000D-01  8.4083178168677D-01 -9.6016430066267D-01
81  8.0000000000000D-01  8.0037191659924D-01 -9.1921403739612D-01
82  8.1000000000000D-01  7.5986607453167D-01 -8.7564935456762D-01
83  8.2000000000000D-01  7.1942766295208D-01 -8.2979651817720D-01
84  8.3000000000000D-01  6.7916780425952D-01 -7.8199049028751D-01
85  8.4000000000000D-01  6.3919497004694D-01 -7.3257289896682D-01
86  8.5000000000000D-01  5.9961463779767D-01 -6.8188991599269D-01
87  8.6000000000000D-01  5.6052897111280D-01 -6.3029004543585D-01
88  8.7000000000000D-01  5.2203652449961D-01 -5.7812182688174D-01
89  8.8000000000000D-01  4.8423197369411D-01 -5.2573145772588D-01
90  8.9000000000000D-01  4.4720587244497D-01 -4.7346033968601D-01
91  9.0000000000000D-01  4.1104443664706D-01 -4.2164255539747D-01
92  9.1000000000000D-01  3.7582935668134D-01 -3.7060228168283D-01
93  9.2000000000000D-01  3.4163763878931D-01 -3.2065114680065D-01
94  9.3000000000000D-01  3.0854147628459D-01 -2.7208553966403D-01
95  9.4000000000000D-01  2.7660815137728D-01 -2.2518387966506D-01
96  9.5000000000000D-01  2.4589996835716D-01 -1.8020385632960D-01
97  9.6000000000000D-01  2.1647421884669D-01 -1.3737964854910D-01
98  9.7000000000000D-01  1.8838317979227D-01 -9.6919133566010D-02
99  9.8000000000000D-01  1.6167414618709D-01 -5.9001091583837D-02
100  9.9000000000000D-01  1.3638949718748D-01 -2.3772420375778D-02
101  1.0000000000000D+00  1.1256674550901D-01  8.6544397293336D-03
102  1.0100000000000D+00  9.0238871496393D-02  3.8204926674249D-02
103  1.0200000000000D+00  6.9433735401369D-02  6.4842476227475D-02
104  1.0300000000000D+00  5.0170995212739D-02  8.8559475408671D-02
105  1.0400000000000D+00  3.2459529546817D-02  1.0936745745102D-01
106  1.0500000000000D+00  1.6297705780080D-02  1.2729580198653D-01
107  1.0600000000000D+00  1.6741728632856D-03  1.4239198288815D-01
108  1.0700000000000D+00 -1.1431526849086D-02  1.5472122735025D-01
109  1.0800000000000D+00 -2.3048307907758D-02  1.6436620210620D-01
110  1.0900000000000D+00 -3.3212894804722D-02  1.7142660553480D-01
111  1.1000000000000D+00 -4.1969182081616D-02  1.7601863616397D-01
112  1.1100000000000D+00 -4.9367600500514D-02  1.7827432831573D-01
113  1.1200000000000D+00 -5.5464490287126D-02  1.7834074010750D-01
114  1.1300000000000D+00 -6.0321482681332D-02  1.7637897941024D-01
115  1.1400000000000D+00 -6.4004891205408D-02  1.7256305362410D-01
116  1.1500000000000D+00 -6.6585114327828D-02  1.6707852988787D-01
117  1.1600000000000D+00 -6.8136051311987D-02  1.6012099317718D-01
118  1.1700000000000D+00 -6.8734533082806D-02  1.5189429173831D-01
119  1.1800000000000D+00 -6.8459770000587D-02  1.4260856046037D-01
120  1.1900000000000D+00 -6.7392818201588D-02  1.3247801705428D-01
121  1.2000000000000D+00 -6.5616065685077D-02  1.2171853124947D-01
122  1.2100000000000D+00 -6.3212738956646D-02  1.1054497176168D-01
123  1.2200000000000D+00 -6.0266430185304D-02  9.9168344671620D-02
124  1.2300000000000D+00 -5.6860643530822D-02  8.7792749864652D-02
125  1.2400000000000D+00 -5.3078358242442D-02  7.6612193796434D-02
126  1.2500000000000D+00 -4.9001605077737D-02  6.5807306911274D-02
127  1.2600000000000D+00 -4.4711050063815D-02  5.5542042151394D-02
128  1.2700000000000D+00 -4.0285579071595D-02  4.5960441577817D-02
129  1.2800000000000D+00 -3.5801875246428D-02  3.7183570970010D-02
130  1.2900000000000D+00 -3.1333979420892D-02  2.9306756390251D-02
131  1.3000000000000D+00 -2.6952825433941D-02  2.2397246513384D-02
132  1.3100000000000D+00 -2.2725739698275D-02  1.6492451120984D-02
133  1.3200000000000D+00 -1.8715898944458D-02  1.1598893567579D-02
134  1.3300000000000D+00 -1.4981742155629D-02  7.6919902573893D-03
135  1.3400000000000D+00 -1.1576332239594D-02  4.7167945085318D-03
136  1.3500000000000D+00 -8.5466778802076D-03  2.5897141457489D-03
137  1.3600000000000D+00 -5.9330360025115D-03  1.2012545204707D-03
138  1.3700000000000D+00 -3.7693609464951D-03  4.1935159603142D-04
139  1.3800000000000D+00 -2.0718375306137D-03  9.5998346326367D-05
140  1.3900000000000D+00 -8.6881254215738D-04  6.8239351358983D-05
141  1.4000000000000D+00 -1.8965819620744D-04  1.7464616175010D-04
142  1.4100000000000D+00  5.6010049722076D-05  2.2196724555403D-04
143  1.4200000000000D+00  4.5040487600747D-05  9.4164147839261D-05
144  1.4300000000000D+00 -1.1710774430998D-05 -2.0761883422275D-05
145  1.4400000000000D+00 -8.3402250491579D-06 -1.3777374387108D-05
146  1.4500000000000D+00  3.0281417832283D-06  5.5699582252192D-06
147  1.4600000000000D+00  4.3635083432339D-07  7.7382186331260D-07
148  1.4700000000000D+00 -1.4401697786601D-07 -6.3039558502761D-07
149  1.4800000000000D+00  0.0000000000000D+00  0.0000000000000D+00
150  1.4900000000000D+00  0.0000000000000D+00  0.0000000000000D+00
151  1.5000000000000D+00  0.0000000000000D+00  0.0000000000000D+00
152  1.5100000000000D+00  0.0000000000000D+00  0.0000000000000D+00
153  1.5200000000000D+00  0.0000000000000D+00  0.0000000000000D+00
154  1.5300000000000D+00  0.0000000000000D+00  0.0000000000000D+00
155  1.5400000000000D+00  0.0000000000000D+00  0.0000000000000D+00
156  1.5500000000000D+00  0.0000000000000D+00  0.0000000000000D+00
157  1.5600000000000D+00  0.0000000000000D+00  0.0000000000000D+00
158  1.5700000000000D+00  0.0000000000000D+00  0.0000000000000D+00
159  1.5800000000000D+00  0.0000000000000D+00  0.0000000000000D+00
160  1.5900000000000D+00  0.0000000000000D+00  0.0000000000000D+00
161  1.6000000000000D+00  0.0000000000000D+00  0.0000000000000D+00
162  1.6100000000000D+00  0.0000000000000D+00  0.0000000000000D+00
163  1.6200000000000D+00  0.0000000000000D+00  0.0000000000000D+00
164  1.6300000000000D+00  0.0000000000000D+00  0.0000000000000D+00
165  1.6400000000000D+00  0.0000000000000D+00  0.0000000000000D+00
166  1.6500000000000D+00  0.0000000000000D+00  0.0000000000000D+00
167  1.6600000000000D+00  0.0000000000000D+00  0.0000000000000D+00
168  1.6700000000000D+00  0.0000000000000D+00  0.0000000000000D+00
169  1.6800000000000D+00  0.0000000000000D+00  0.0000000000000D+00
170  1.6900000000000D+00  0.0000000000000D+00  0.0000000000000D+00
171  1.7000000000000D+00  0.0000000000000D+00  0.0000000000000D+00
172  1.7100000000000D+00  0.0000000000000D+00  0.0000000000000D+00
173  1.7200000000000D+00  0.0000000000000D+00  0.0000000000000D+00
174  1.7300000000000D+00  0.0000000000000D+00  0.0000000000000D+00
175  1.7400000000000D+00  0.0000000000000D+00  0.0000000000000D+00
176  1.7500000000000D+00  0.0000000000000D+00  0.0000000000000D+00
177  1.7600000000000D+00  0.0000000000000D+00  0.0000000000000D+00
178  1.7700000000000D+00  0.0000000000000D+00  0.0000000000000D+00
179  1.7800000000000D+00  0.0000000000000D+00  0.0000000000000D+00
180  1.7900000000000D+00  0.0000000000000D+00  0.0000000000000D+00
181  1.8000000000000D+00  0.0000000000000D+00  0.0000000000000D+00
182  1.8100000000000D+00  0.0000000000000D+00  0.0000000000000D+00
183  1.8200000000000D+00  0.0000000000000D+00  0.0000000000000D+00
184  1.8300000000000D+00  0.0000000000000D+00  0.0000000000000D+00
185  1.8400000000000D+00  0.0000000000000D+00  0.0000000000000D+00
186  1.8500000000000D+00  0.0000000000000D+00  0.0000000000000D+00
187  1.8600000000000D+00  0.0000000000000D+00  0.0000000000000D+00
188  1.8700000000000D+00  0.0000000000000D+00  0.0000000000000D+00
189  1.8800000000000D+00  0.0000000000000D+00  0.0000000000000D+00
190  1.8900000000000D+00  0.0000000000000D+00  0.0000000000000D+00
191  1.9000000000000D+00  0.0000000000000D+00  0.0000000000000D+00
192  1.9100000000000D+00  0.0000000000000D+00  0.0000000000000D+00
193  1.9200000000000D+00  0.0000000000000D+00  0.0000000000000D+00
194  1.9300000000000D+00  0.0000000000000D+00  0.0000000000000D+00
195  1.9400000000000D+00  0.0000000000000D+00  0.0000000000000D+00
196  1.9500000000000D+00  0.0000000000000D+00  0.0000000000000D+00
197  1.9600000000000D+00  0.0000000000000D+00  0.0000000000000D+00
198  1.9700000000000D+00  0.0000000000000D+00  0.0000000000000D+00
199  1.9800000000000D+00  0.0000000000000D+00  0.0000000000000D+00
200  1.9900000000000D+00  0.0000000000000D+00  0.0000000000000D+00
201  2.0000000000000D+00  0.0000000000000D+00  0.0000000000000D+00
202  2.0100000000000D+00  0.0000000000000D+00  0.0000000000000D+00
203  2.0200000000000D+00  0.0000000000000D+00  0.0000000000000D+00
204  2.0300000000000D+00  0.0000000000000D+00  0.0000000000000D+00
205  2.0400000000000D+00  0.0000000000000D+00  0.0000000000000D+00
206  2.0500000000000D+00  0.0000000000000D+00  0.0000000000000D+00
207  2.0600000000000D+00  0.0000000000000D+00  0.0000000000000D+00
208  2.0700000000000D+00  0.0000000000000D+00  0.0000000000000D+00
209  2.0800000000000D+00  0.0000000000000D+00  0.0000000000000D+00
210  2.0900000000000D+00  0.0000000000000D+00  0.0000000000000D+00
211  2.1000000000000D+00  0.0000000000000D+00  0.0000000000000D+00
212  2.1100000000000D+00  0.0000000000000D+00  0.0000000000000D+00
213  2.1200000000000D+00  0.0000000000000D+00  0.0000000000000D+00
214  2.1300000000000D+00  0.0000000000000D+00  0.0000000000000D+00
215  2.1400000000000D+00  0.0000000000000D+00  0.0000000000000D+00
216  2.1500000000000D+00  0.0000000000000D+00  0.0000000000000D+00
217  2.1600000000000D+00  0.0000000000000D+00  0.0000000000000D+00
218  2.1700000000000D+00  0.0000000000000D+00  0.0000000000000D+00
219  2.1800000000000D+00  0.0000000000000D+00  0.0000000000000D+00
220  2.1900000000000D+00  0.0000000000000D+00  0.0000000000000D+00
221  2.2000000000000D+00  0.0000000000000D+00  0.0000000000000D+00
222  2.2100000000000D+00  0.0000000000000D+00  0.0000000000000D+00
223  2.2200000000000D+00  0.0000000000000D+00  0.0000000000000D+00
224  2.2300000000000D+00  0.0000000000000D+00  0.0000000000000D+00
225  2.2400000000000D+00  0.0000000000000D+00  0.0000000000000D+00
226  2.2500000000000D+00  0.0000000000000D+00  0.0000000000000D+00
227  2.2600000000000D+00  0.0000000000000D+00  0.0000000000000D+00
228  2.2700000000000D+00  0.0000000000000D+00  0.0000000000000D+00
229  2.2800000000000D+00  0.0000000000000D+00  0.0000000000000D+00
230  2.2900000000000D+00  0.0000000000000D+00  0.0000000000000D+00
231  2.3000000000000D+00  0.0000000000000D+00  0.0000000000000D+00
232  2.3100000000000D+00  0.0000000000000D+00  0.0000000000000D+00
233  2.3200000000000D+00  0.0000000000000D+00  0.0000000000000D+00
234  2.3300000000000D+00  0.0000000000000D+00  0.0000000000000D+00
235  2.3400000000000D+00  0.0000000000000D+00  0.0000000000000D+00
236  2.3500000000000D+00  0.0000000000000D+00  0.0000000000000D+00
237  2.3600000000000D+00  0.0000000000000D+00  0.0000000000000D+00
238  2.3700000000000D+00  0.0000000000000D+00  0.0000000000000D+00
239  2.3800000000000D+00  0.0000000000000D+00  0.0000000000000D+00
240  2.3900000000000D+00  0.0000000000000D+00  0.0000000000000D+00
241  2.4000000000000D+00  0.0000000000000D+00  0.0000000000000D+00
242  2.4100000000000D+00  0.0000000000000D+00  0.0000000000000D+00
243  2.4200000000000D+00  0.0000000000000D+00  0.0000000000000D+00
244  2.4300000000000D+00  0.0000000000000D+00  0.0000000000000D+00
245  2.4400000000000D+00  0.0000000000000D+00  0.0000000000000D+00
246  2.4500000000000D+00  0.0000000000000D+00  0.0000000000000D+00
247  2.4600000000000D+00  0.0000000000000D+00  0.0000000000000D+00
248  2.4700000000000D+00  0.0000000000000D+00  0.0000000000000D+00
249  2.4800000000000D+00  0.0000000000000D+00  0.0000000000000D+00
250  2.4900000000000D+00  0.0000000000000D+00  0.0000000000000D+00
251  2.5000000000000D+00  0.0000000000000D+00  0.0000000000000D+00
252  2.5100000000000D+00  0.0000000000000D+00  0.0000000000000D+00
253  2.5200000000000D+00  0.0000000000000D+00  0.0000000000000D+00
254  2.5300000000000D+00  0.0000000000000D+00  0.0000000000000D+00
255  2.5400000000000D+00  0.0000000000000D+00  0.0000000000000D+00
256  2.5500000000000D+00  0.0000000000000D+00  0.0000000000000D+00
257  2.5600000000000D+00  0.0000000000000D+00  0.0000000000000D+00
258  2.5700000000000D+00  0.0000000000000D+00  0.0000000000000D+00
259  2.5800000000000D+00  0.0000000000000D+00  0.0000000000000D+00
260  2.5900000000000D+00  0.0000000000000D+00  0.0000000000000D+00
261  2.6000000000000D+00  0.0000000000000D+00  0.0000000000000D+00
262  2.6100000000000D+00  0.0000000000000D+00  0.0000000000000D+00
263  2.6200000000000D+00  0.0000000000000D+00  0.0000000000000D+00
264  2.6300000000000D+00  0.0000000000000D+00  0.0000000000000D+00
265  2.6400000000000D+00  0.0000000000000D+00  0.0000000000000D+00
266  2.6500000000000D+00  0.0000000000000D+00  0.0000000000000D+00
267  2.6600000000000D+00  0.0000000000000D+00  0.0000000000000D+00
268  2.6700000000000D+00  0.0000000000000D+00  0.0000000000000D+00
269  2.6800000000000D+00  0.0000000000000D+00  0.0000000000000D+00
270  2.6900000000000D+00  0.0000000000000D+00  0.0000000000000D+00
271  2.7000000000000D+00  0.0000000000000D+00  0.0000000000000D+00
272  2.7100000000000D+00  0.0000000000000D+00  0.0000000000000D+00
273  2.7200000000000D+00  0.0000000000000D+00  0.0000000000000D+00
274  2.7300000000000D+00  0.0000000000000D+00  0.0000000000000D+00
275  2.7400000000000D+00  0.0000000000000D+00  0.0000000000000D+00
276  2.7500000000000D+00  0.0000000000000D+00  0.0000000000000D+00
277  2.7600000000000D+00  0.0000000000000D+00  0.0000000000000D+00
278  2.7700000000000D+00  0.0000000000000D+00  0.0000000000000D+00
279  2.7800000000000D+00  0.0000000000000D+00  0.0000000000000D+00
280  2.7900000000000D+00  0.0000000000000D+00  0.0000000000000D+00
281  2.8000000000000D+00  0.0000000000000D+00  0.0000000000000D+00
282  2.8100000000000D+00  0.0000000000000D+00  0.0000000000000D+00
283  2.8200000000000D+00  0.0000000000000D+00  0.0000000000000D+00
284  2.8300000000000D+00  0.0000000000000D+00  0.0000000000000D+00
285  2.8400000000000D+00  0.0000000000000D+00  0.0000000000000D+00
286  2.8500000000000D+00  0.0000000000000D+00  0.0000000000000D+00
287  2.8600000000000D+00  0.0000000000000D+00  0.0000000000000D+00
288  2.8700000000000D+00  0.0000000000000D+00  0.0000000000000D+00
289  2.8800000000000D+00  0.0000000000000D+00  0.0000000000000D+00
290  2.8900000000000D+00  0.0000000000000D+00  0.0000000000000D+00
291  2.9000000000000D+00  0.0000000000000D+00  0.0000000000000D+00
292  2.9100000000000D+00  0.0000000000000D+00  0.0000000000000D+00
293  2.9200000000000D+00  0.0000000000000D+00  0.0000000000000D+00
294  2.9300000000000D+00  0.0000000000000D+00  0.0000000000000D+00
295  2.9400000000000D+00  0.0000000000000D+00  0.0000000000000D+00
296  2.9500000000000D+00  0.0000000000000D+00  0.0000000000000D+00
297  2.9600000000000D+00  0.0000000000000D+00  0.0000000000000D+00
298  2.9700000000000D+00  0.0000000000000D+00  0.0000000000000D+00
299  2.9800000000000D+00  0.0000000000000D+00  0.0000000000000D+00
300  2.9900000000000D+00  0.0000000000000D+00  0.0000000000000D+00
301  3.0000000000000D+00  0.0000000000000D+00  0.0000000000000D+00
302  3.0100000000000D+00  0.0000000000000D+00  0.0000000000000D+00
303  3.0200000000000D+00  0.0000000000000D+00  0.0000000000000D+00
304  3.0300000000000D+00  0.0000000000000D+00  0.0000000000000D+00
305  3.0400000000000D+00  0.0000000000000D+00  0.0000000000000D+00
306  3.0500000000000D+00  0.0000000000000D+00  0.0000000000000D+00
307  3.0600000000000D+00  0.0000000000000D+00  0.0000000000000D+00
308  3.0700000000000D+00  0.0000000000000D+00  0.0000000000000D+00
309  3.0800000000000D+00  0.0000000000000D+00  0.0000000000000D+00
310  3.0900000000000D+00  0.0000000000000D+00  0.0000000000000D+00
311  3.1000000000000D+00  0.0000000000000D+00  0.0000000000000D+00
312  3.1100000000000D+00  0.0000000000000D+00  0.0000000000000D+00
313  3.1200000000000D+00  0.0000000000000D+00  0.0000000000000D+00
314  3.1300000000000D+00  0.0000000000000D+00  0.0000000000000D+00
315  3.1400000000000D+00  0.0000000000000D+00  0.0000000000000D+00
316  3.1500000000000D+00  0.0000000000000D+00  0.0000000000000D+00
317  3.1600000000000D+00  0.0000000000000D+00  0.0000000000000D+00
318  3.1700000000000D+00  0.0000000000000D+00  0.0000000000000D+00
319  3.1800000000000D+00  0.0000000000000D+00  0.0000000000000D+00
320  3.1900000000000D+00  0.0000000000000D+00  0.0000000000000D+00
321  3.2000000000000D+00  0.0000000000000D+00  0.0000000000000D+00
322  3.2100000000000D+00  0.0000000000000D+00  0.0000000000000D+00
323  3.2200000000000D+00  0.0000000000000D+00  0.0000000000000D+00
324  3.2300000000000D+00  0.0000000000000D+00  0.0000000000000D+00
325  3.2400000000000D+00  0.0000000000000D+00  0.0000000000000D+00
326  3.2500000000000D+00  0.0000000000000D+00  0.0000000000000D+00
327  3.2600000000000D+00  0.0000000000000D+00  0.0000000000000D+00
328  3.2700000000000D+00  0.0000000000000D+00  0.0000000000000D+00
329  3.2800000000000D+00  0.0000000000000D+00  0.0000000000000D+00
330  3.2900000000000D+00  0.0000000000000D+00  0.0000000000000D+00
331  3.3000000000000D+00  0.0000000000000D+00  0.0000000000000D+00
332  3.3100000000000D+00  0.0000000000000D+00  0.0000000000000D+00
333  3.3200000000000D+00  0.0000000000000D+00  0.0000000000000D+00
334  3.3300000000000D+00  0.0000000000000D+00  0.0000000000000D+00
335  3.3400000000000D+00  0.0000000000000D+00  0.0000000000000D+00
336  3.3500000000000D+00  0.0000000000000D+00  0.0000000000000D+00
337  3.3600000000000D+00  0.0000000000000D+00  0.0000000000000D+00
338  3.3700000000000D+00  0.0000000000000D+00  0.0000000000000D+00
339  3.3800000000000D+00  0.0000000000000D+00  0.0000000000000D+00
340  3.3900000000000D+00  0.0000000000000D+00  0.0000000000000D+00
341  3.4000000000000D+00  0.0000000000000D+00  0.0000000000000D+00
342  3.4100000000000D+00  0.0000000000000D+00  0.0000000000000D+00
343  3.4200000000000D+00  0.0000000000000D+00  0.0000000000000D+00
344  3.4300000000000D+00  0.0000000000000D+00  0.0000000000000D+00
345  3.4400000000000D+00  0.0000000000000D+00  0.0000000000000D+00
346  3.4500000000000D+00  0.0000000000000D+00  0.0000000000000D+00
347  3.4600000000000D+00  0.0000000000000D+00  0.0000000000000D+00
348  3.4700000000000D+00  0.0000000000000D+00  0.0000000000000D+00
349  3.4800000000000D+00  0.0000000000000D+00  0.0000000000000D+00
350  3.4900000000000D+00  0.0000000000000D+00  0.0000000000000D+00
351  3.5000000000000D+00  0.0000000000000D+00  0.0000000000000D+00
352  3.5100000000000D+00  0.0000000000000D+00  0.0000000000000D+00
353  3.5200000000000D+00  0.0000000000000D+00  0.0000000000000D+00
354  3.5300000000000D+00  0.0000000000000D+00  0.0000000000000D+00
355  3.5400000000000D+00  0.0000000000000D+00  0.0000000000000D+00
356  3.5500000000000D+00  0.0000000000000D+00  0.0000000000000D+00
357  3.5600000000000D+00  0.0000000000000D+00  0.0000000000000D+00
358  3.5700000000000D+00  0.0000000000000D+00  0.0000000000000D+00
359  3.5800000000000D+00  0.0000000000000D+00  0.0000000000000D+00
360  3.5900000000000D+00  0.0000000000000D+00  0.0000000000000D+00
361  3.6000000000000D+00  0.0000000000000D+00  0.0000000000000D+00
362  3.6100000000000D+00  0.0000000000000D+00  0.0000000000000D+00
363  3.6200000000000D+00  0.0000000000000D+00  0.0000000000000D+00
364  3.6300000000000D+00  0.0000000000000D+00  0.0000000000000D+00
365  3.6400000000000D+00  0.0000000000000D+00  0.0000000000000D+00
366  3.6500000000000D+00  0.0000000000000D+00  0.0000000000000D+00
367  3.6600000000000D+00  0.0000000000000D+00  0.0000000000000D+00
368  3.6700000000000D+00  0.0000000000000D+00  0.0000000000000D+00
369  3.6800000000000D+00  0.0000000000000D+00  0.0000000000000D+00
370  3.6900000000000D+00  0.0000000000000D+00  0.0000000000000D+00
371  3.7000000000000D+00  0.0000000000000D+00  0.0000000000000D+00
372  3.7100000000000D+00  0.0000000000000D+00  0.0000000000000D+00
373  3.7200000000000D+00  0.0000000000000D+00  0.0000000000000D+00
374  3.7300000000000D+00  0.0000000000000D+00  0.0000000000000D+00
375  3.7400000000000D+00  0.0000000000000D+00  0.0000000000000D+00
376  3.7500000000000D+00  0.0000000000000D+00  0.0000000000000D+00
377  3.7600000000000D+00  0.0000000000000D+00  0.0000000000000D+00
378  3.7700000000000D+00  0.0000000000000D+00  0.0000000000000D+00
379  3.7800000000000D+00  0.0000000000000D+00  0.0000000000000D+00
380  3.7900000000000D+00  0.0000000000000D+00  0.0000000000000D+00
381  3.8000000000000D+00  0.0000000000000D+00  0.0000000000000D+00
382  3.8100000000000D+00  0.0000000000000D+00  0.0000000000000D+00
383  3.8200000000000D+00  0.0000000000000D+00  0.0000000000000D+00
384  3.8300000000000D+00  0.0000000000000D+00  0.0000000000000D+00
385  3.8400000000000D+00  0.0000000000000D+00  0.0000000000000D+00
386  3.8500000000000D+00  0.0000000000000D+00  0.0000000000000D+00
387  3.8600000000000D+00  0.0000000000000D+00  0.0000000000000D+00
388  3.8700000000000D+00  0.0000000000000D+00  0.0000000000000D+00
389  3.8800000000000D+00  0.0000000000000D+00  0.0000000000000D+00
390  3.8900000000000D+00  0.0000000000000D+00  0.0000000000000D+00
391  3.9000000000000D+00  0.0000000000000D+00  0.0000000000000D+00
392  3.9100000000000D+00  0.0000000000000D+00  0.0000000000000D+00
393  3.9200000000000D+00  0.0000000000000D+00  0.0000000000000D+00
394  3.9300000000000D+00  0.0000000000000D+00  0.0000000000000D+00
395  3.9400000000000D+00  0.0000000000000D+00  0.0000000000000D+00
396  3.9500000000000D+00  0.0000000000000D+00  0.0000000000000D+00
397  3.9600000000000D+00  0.0000000000000D+00  0.0000000000000D+00
398  3.9700000000000D+00  0.0000000000000D+00  0.0000000000000D+00
399  3.9800000000000D+00  0.0000000000000D+00  0.0000000000000D+00
400  3.9900000000000D+00  0.0000000000000D+00  0.0000000000000D+00
401  4.0000000000000D+00  0.0000000000000D+00  0.0000000000000D+00
402  4.0100000000000D+00  0.0000000000000D+00  0.0000000000000D+00
403  4.0200000000000D+00  0.0000000000000D+00  0.0000000000000D+00
404  4.0300000000000D+00  0.0000000000000D+00  0.0000000000000D+00
405  4.0400000000000D+00  0.0000000000000D+00  0.0000000000000D+00
406  4.0500000000000D+00  0.0000000000000D+00  0.0000000000000D+00
407  4.0600000000000D+00  0.0000000000000D+00  0.0000000000000D+00
408  4.0700000000000D+00  0.0000000000000D+00  0.0000000000000D+00
409  4.0800000000000D+00  0.0000000000000D+00  0.0000000000000D+00
410  4.0900000000000D+00  0.0000000000000D+00  0.0000000000000D+00
411  4.1000000000000D+00  0.0000000000000D+00  0.0000000000000D+00
412  4.1100000000000D+00  0.0000000000000D+00  0.0000000000000D+00
413  4.1200000000000D+00  0.0000000000000D+00  0.0000000000000D+00
414  4.1300000000000D+00  0.0000000000000D+00  0.0000000000000D+00
415  4.1400000000000D+00  0.0000000000000D+00  0.0000000000000D+00
416  4.1500000000000D+00  0.0000000000000D+00  0.0000000000000D+00
417  4.1600000000000D+00  0.0000000000000D+00  0.0000000000000D+00
418  4.1700000000000D+00  0.0000000000000D+00  0.0000000000000D+00
419  4.1800000000000D+00  0.0000000000000D+00  0.0000000000000D+00
420  4.1900000000000D+00  0.0000000000000D+00  0.0000000000000D+00
421  4.2000000000000D+00  0.0000000000000D+00  0.0000000000000D+00
422  4.2100000000000D+00  0.0000000000000D+00  0.0000000000000D+00
423  4.2200000000000D+00  0.0000000000000D+00  0.0000000000000D+00
424  4.2300000000000D+00  0.0000000000000D+00  0.0000000000000D+00
425  4.2400000000000D+00  0.0000000000000D+00  0.0000000000000D+00
426  4.2500000000000D+00  0.0000000000000D+00  0.0000000000000D+00
427  4.2600000000000D+00  0.0000000000000D+00  0.0000000000000D+00
428  4.2700000000000D+00  0.0000000000000D+00  0.0000000000000D+00
429  4.2800000000000D+00  0.0000000000000D+00  0.0000000000000D+00
430  4.2900000000000D+00  0.0000000000000D+00  0.0000000000000D+00
431  4.3000000000000D+00  0.0000000000000D+00  0.0000000000000D+00
432  4.3100000000000D+00  0.0000000000000D+00  0.0000000000000D+00
433  4.3200000000000D+00  0.0000000000000D+00  0.0000000000000D+00
434  4.3300000000000D+00  0.0000000000000D+00  0.0000000000000D+00
435  4.3400000000000D+00  0.0000000000000D+00  0.0000000000000D+00
436  4.3500000000000D+00  0.0000000000000D+00  0.0000000000000D+00
437  4.3600000000000D+00  0.0000000000000D+00  0.0000000000000D+00
438  4.3700000000000D+00  0.0000000000000D+00  0.0000000000000D+00
439  4.3800000000000D+00  0.0000000000000D+00  0.0000000000000D+00
440  4.3900000000000D+00  0.0000000000000D+00  0.0000000000000D+00
441  4.4000000000000D+00  0.0000000000000D+00  0.0000000000000D+00
442  4.4100000000000D+00  0.0000000000000D+00  0.0000000000000D+00
443  4.4200000000000D+00  0.0000000000000D+00  0.0000000000000D+00