<?xml version="1.0" encoding="UTF-8" ?>
<psml version="1.1" energy_unit="hartree" length_unit="bohr"
 uuid="0e772e70-539e-11e8-6d33-7e17fbd89ebe"
 xmlns="http://esl.cecam.org/PSML/ns/1.1">
<provenance creator="ONCVPSP-3.3.0+psml-3.3.0-73 (fully-relativistic)"
 date="2018-05-09">
<annotation action="semilocal-pseudopotential-generation"
 action-cont="projectors-generation" />
<input-file name="oncvpsp-input">
<![CDATA[# atsym z nc nv iexc psfile
Al 13 3 2 -116133 upf
# n l f
1 0 2.0
2 0 2.0
2 1 6.0
3 0 2.0
3 1 1.0
# lmax
2
# l rc ep ncon nbas qcut
0 1.75 0.0 4 9 6.0
1 1.75 0.0 4 9 6.4
2 1.7 0.05 4 9 6.5
# lloc lpopt rc5 dvloc0
4 5 1.4 0.0
# l nproj debl
0 2 2.8
1 2 2.8
2 2 1.5
# icmod fcfact
3 5 1.3
# epsh1 epsh2 depsh
-12.0 12.0 0.02
# rlmax drl
6.0 0.01
 0
]]>
</input-file>
</provenance>
<pseudo-atom-spec atomic-label="Al" atomic-number="13" z-pseudo="3"
 flavor="Hamann&apos;s oncvpsp" relativity="dirac" spin-dft="no"
 core-corrections="yes">
<annotation pseudo-energy="-1.94814686572" />
<exchange-correlation>
<annotation oncvpsp-xc-code="-116133" oncvpsp-xc-type="libxc-interface" />
<libxc-info number-of-functionals="2">
<functional name="Perdew, Burke &amp; Ernzerhof SOL (GGA)" type="exchange"
 id="116" />
<functional name="Perdew, Burke &amp; Ernzerhof SOL (GGA)" type="correlation"
 id="133" />
</libxc-info>
</exchange-correlation>
<valence-configuration total-valence-charge="3">
<shell n="3" l="s" occupation="2" />
<shell n="3" l="p" occupation="1" />
</valence-configuration>
</pseudo-atom-spec>
<grid npts="457">
<annotation type="sampled from oncvpsp log grid"
 recipe="r(i:1..N) = r1*exp(a*(i-1)) + r=0; resampled"
 recipe-cont="r1: scale; a: step" scale="0.384615384615E-04"
 step="0.119285708653E-01" delta="0.500000000000E-02" rmax="44.2819035286" />
<grid-data>
  0.000000000000E+00  5.056572821787E-03  1.010010738593E-02  1.515177164649E-02
  2.017417187544E-02  2.530611364749E-02  3.062764849307E-02  3.576517189487E-02
  4.077988101034E-02  4.594635663797E-02  5.115353977107E-02  5.627555565467E-02
  6.191044018488E-02  6.730192393188E-02  7.316292617862E-02  7.859124016080E-02
  8.442230720698E-02  8.961068135315E-02  9.511791940120E-02  1.009636178924E-01
  1.071685777200E-01  1.124060060732E-01  1.178993924351E-01  1.236612457124E-01
  1.297046861337E-01  1.360434751253E-01  1.426920466473E-01  1.478908498626E-01
  1.532790648602E-01  1.588635926174E-01  1.646515855399E-01  1.706504566222E-01
  1.768678889419E-01  1.833118454995E-01  1.899905794176E-01  1.969126445107E-01
  2.040869062406E-01  2.115225530709E-01  2.166295535922E-01  2.218598575342E-01
  2.272164419345E-01  2.327023557085E-01  2.383207213848E-01  2.440747368819E-01
  2.499676773291E-01  2.560028969306E-01  2.621838308741E-01  2.685139972867E-01
  2.749969992372E-01  2.816365267868E-01  2.884363590895E-01  2.954003665434E-01
  3.025325129932E-01  3.098368579869E-01  3.173175590861E-01  3.249788742327E-01
  3.328251641722E-01  3.408608949359E-01  3.490906403833E-01  3.575190848047E-01
  3.661510255882E-01  3.749913759500E-01  3.840451677310E-01  3.933175542607E-01
  4.028138132907E-01  4.125393499988E-01  4.224997000652E-01  4.275696964660E-01
  4.327005328236E-01  4.378929392174E-01  4.431476544881E-01  4.484654263419E-01
  4.538470114580E-01  4.592931755955E-01  4.648046937027E-01  4.703823500271E-01
  4.760269382274E-01  4.817392614861E-01  4.875201326240E-01  4.933703742155E-01
  4.992908187060E-01  5.052823085305E-01  5.113456962329E-01  5.174818445877E-01
  5.236916267227E-01  5.299759262434E-01  5.363356373583E-01  5.427716650066E-01
  5.492849249867E-01  5.558763440865E-01  5.625468602156E-01  5.692974225382E-01
  5.761289916086E-01  5.830425395079E-01  5.900390499820E-01  5.971195185818E-01
  6.042849528048E-01  6.115363722385E-01  6.188748087053E-01  6.263013064098E-01
  6.338169220867E-01  6.414227251517E-01  6.491197978536E-01  6.569092354278E-01
  6.647921462529E-01  6.727696520080E-01  6.808428878321E-01  6.890130024860E-01
  6.972811585159E-01  7.056485324181E-01  7.141163148071E-01  7.226857105848E-01
  7.313579391118E-01  7.401342343811E-01  7.490158451937E-01  7.580040353360E-01
  7.671000837601E-01  7.763052847652E-01  7.856209481824E-01  7.950483995606E-01
  8.045889803553E-01  8.142440481195E-01  8.240149766970E-01  8.339031564173E-01
  8.439099942943E-01  8.540369142259E-01  8.642853571966E-01  8.746567814830E-01
  8.851526628607E-01  8.957744948151E-01  9.065237887529E-01  9.174020742179E-01
  9.284108991085E-01  9.395518298978E-01  9.508264518566E-01  9.622363692789E-01
  9.737832057102E-01  9.854686041787E-01  9.972942274289E-01  1.009261758158E+00
  1.021372899256E+00  1.033629374047E+00  1.046032926536E+00  1.058585321654E+00
  1.071288345514E+00  1.084143805660E+00  1.097153531328E+00  1.110319373704E+00
  1.123643206188E+00  1.137126924663E+00  1.150772447759E+00  1.164581717132E+00
  1.178556697737E+00  1.192699378110E+00  1.207011770647E+00  1.221495911895E+00
  1.236153862838E+00  1.250987709192E+00  1.265999561702E+00  1.281191556443E+00
  1.296565855120E+00  1.312124645381E+00  1.327870141126E+00  1.343804582819E+00
  1.359930237813E+00  1.376249400667E+00  1.392764393475E+00  1.409477566197E+00
  1.426391296991E+00  1.443507992555E+00  1.460830088466E+00  1.478360049527E+00
  1.496100370122E+00  1.514053574563E+00  1.532222217458E+00  1.550608884067E+00
  1.569216190676E+00  1.588046784964E+00  1.607103346384E+00  1.626388586540E+00
  1.645905249579E+00  1.665656112574E+00  1.685643985925E+00  1.705871713756E+00
  1.726342174321E+00  1.747058280413E+00  1.768022979778E+00  1.789239255535E+00
  1.810710126601E+00  1.832438648121E+00  1.854427911898E+00  1.876681046841E+00
  1.899201219403E+00  1.921991634036E+00  1.945055533644E+00  1.968396200048E+00
  1.992016954449E+00  2.015921157902E+00  2.040112211797E+00  2.064593558338E+00
  2.089368681038E+00  2.114441105211E+00  2.139814398473E+00  2.165492171255E+00
  2.191478077310E+00  2.217775814238E+00  2.244389124009E+00  2.271321793497E+00
  2.298577655019E+00  2.326160586879E+00  2.354074513922E+00  2.382323408089E+00
  2.410911288986E+00  2.439842224453E+00  2.469120331147E+00  2.498749775121E+00
  2.528734772422E+00  2.559079589691E+00  2.589788544768E+00  2.620866007305E+00
  2.652316399392E+00  2.684144196185E+00  2.716353926539E+00  2.748950173658E+00
  2.781937575742E+00  2.815320826651E+00  2.849104676570E+00  2.883293932689E+00
  2.917893459882E+00  2.952908181400E+00  2.988343079577E+00  3.024203196532E+00
  3.060493634890E+00  3.097219558509E+00  3.134386193211E+00  3.171998827530E+00
  3.210062813460E+00  3.248583567221E+00  3.287566570028E+00  3.327017368868E+00
  3.366941577295E+00  3.407344876222E+00  3.448233014737E+00  3.489611810914E+00
  3.531487152645E+00  3.573864998477E+00  3.616751378458E+00  3.660152395000E+00
  3.704074223740E+00  3.748523114425E+00  3.793505391798E+00  3.839027456499E+00
  3.885095785977E+00  3.931716935409E+00  3.978897538634E+00  4.026644309098E+00
  4.074964040807E+00  4.123863609296E+00  4.173349972608E+00  4.223430172279E+00
  4.274111334347E+00  4.325400670359E+00  4.377305478403E+00  4.429833144144E+00
  4.482991141874E+00  4.536787035576E+00  4.591228480003E+00  4.646323221763E+00
  4.702079100424E+00  4.758504049629E+00  4.815606098225E+00  4.873393371404E+00
  4.931874091860E+00  4.991056580963E+00  5.050949259934E+00  5.111560651053E+00
  5.172899378866E+00  5.234974171413E+00  5.297793861469E+00  5.361367387807E+00
  5.425703796461E+00  5.490812242018E+00  5.556701988923E+00  5.623382412790E+00
  5.690863001743E+00  5.759153357764E+00  5.828263198057E+00  5.898202356434E+00
  5.968980784711E+00  6.040608554128E+00  6.113095856777E+00  6.186453007058E+00
  6.260690443143E+00  6.335818728461E+00  6.411848553202E+00  6.488790735841E+00
  6.566656224671E+00  6.645456099367E+00  6.725201572559E+00  6.805903991430E+00
  6.887574839327E+00  6.970225737399E+00  7.053868446248E+00  7.138514867603E+00
  7.224177046014E+00  7.310867170566E+00  7.398597576613E+00  7.487380747532E+00
  7.577229316503E+00  7.668156068301E+00  7.760173941121E+00  7.853296028414E+00
  7.947535580755E+00  8.042906007724E+00  8.139420879817E+00  8.237093930374E+00
  8.335939057539E+00  8.435970326229E+00  8.537201970144E+00  8.639648393786E+00
  8.743324174511E+00  8.848244064606E+00  8.954422993381E+00  9.061876069301E+00
  9.170618582133E+00  9.280666005119E+00  9.392033997180E+00  9.504738405146E+00
  9.618795266008E+00  9.734220809200E+00  9.851031458910E+00  9.969243836417E+00
  1.008887476245E+01  1.020994125960E+01  1.033246055472E+01  1.045645008138E+01
  1.058192748235E+01  1.070891061214E+01  1.083741753949E+01  1.096746654996E+01
  1.109907614856E+01  1.123226506234E+01  1.136705224309E+01  1.150345687001E+01
  1.164149835245E+01  1.178119633268E+01  1.192257068867E+01  1.206564153693E+01
  1.221042923538E+01  1.235695438620E+01  1.250523783884E+01  1.265530069290E+01
  1.280716430122E+01  1.296085027283E+01  1.311638047610E+01  1.327377704182E+01
  1.343306236632E+01  1.359425911472E+01  1.375739022409E+01  1.392247890678E+01
  1.408954865366E+01  1.425862323751E+01  1.442972671636E+01  1.460288343695E+01
  1.477811803820E+01  1.495545545465E+01  1.513492092011E+01  1.531653997115E+01
  1.550033845081E+01  1.568634251222E+01  1.587457862236E+01  1.606507356583E+01
  1.625785444862E+01  1.645294870200E+01  1.665038408643E+01  1.685018869546E+01
  1.705239095981E+01  1.725701965133E+01  1.746410388714E+01  1.767367313379E+01
  1.788575721140E+01  1.810038629793E+01  1.831759093351E+01  1.853740202471E+01
  1.875985084901E+01  1.898496905919E+01  1.921278868790E+01  1.944334215216E+01
  1.967666225798E+01  1.991278220508E+01  2.015173559154E+01  2.039355641864E+01
  2.063827909566E+01  2.088593844481E+01  2.113656970615E+01  2.139020854262E+01
  2.164689104513E+01  2.190665373768E+01  2.216953358253E+01  2.243556798552E+01
  2.270479480134E+01  2.297725233896E+01  2.325297936703E+01  2.353201511943E+01
  2.381439930087E+01  2.410017209248E+01  2.438937415759E+01  2.468204664748E+01
  2.497823120725E+01  2.527796998173E+01  2.558130562151E+01  2.588828128897E+01
  2.619894066444E+01  2.651332795241E+01  2.683148788784E+01  2.715346574250E+01
  2.747930733141E+01  2.780905901938E+01  2.814276772762E+01  2.848048094035E+01
  2.882224671163E+01  2.916811367217E+01  2.951813103624E+01  2.987234860867E+01
  3.023081679198E+01  3.059358659348E+01  3.096070963260E+01  3.133223814819E+01
  3.170822500597E+01  3.208872370604E+01  3.247378839052E+01  3.286347385120E+01
  3.325783553742E+01  3.365692956387E+01  3.406081271863E+01  3.446954247126E+01
  3.488317698091E+01  3.530177510468E+01  3.572539640594E+01  3.615410116281E+01
  3.658795037676E+01  3.702700578128E+01  3.747132985066E+01  3.792098580887E+01
  3.837603763857E+01  3.883655009024E+01  3.930258869132E+01  3.977421975562E+01
  4.025151039268E+01  4.073452851739E+01  4.122334285960E+01  4.171802297392E+01
  4.221863924961E+01  4.272526292060E+01  4.323796607565E+01  4.375682166856E+01
  4.428190352858E+01
</grid-data>
</grid>
<valence-charge total-charge="3" is-unscreening-charge="yes"
 rescaled-to-z-pseudo="no">
<radfunc>
<data npts="457">
  3.398331376374E-02  3.398963664063E-02  3.400853867938E-02  3.404007702282E-02
  3.408393295863E-02  3.414161103281E-02  3.421514116330E-02  3.429936745156E-02
  3.439410673201E-02  3.450463595188E-02  3.462928402019E-02  3.476484388401E-02
  3.492878224177E-02  3.510012455293E-02  3.530241425349E-02  3.550461840264E-02
  3.573768260099E-02  3.595882330726E-02  3.620768748275E-02  3.648771238272E-02
  3.680275211665E-02  3.708288024958E-02  3.739062034331E-02  3.772865206370E-02
  3.809990760127E-02  3.850759426604E-02  3.895521895812E-02  3.931943953449E-02
  3.971002064143E-02  4.012882838543E-02  4.057785613026E-02  4.105923273805E-02
  4.157523133229E-02  4.212827862190E-02  4.272096482964E-02  4.335605427299E-02
  4.403649664958E-02  4.476543908416E-02  4.527999410653E-02  4.581864180854E-02
  4.638247786305E-02  4.697264609837E-02  4.759034059084E-02  4.823680785203E-02
  4.891334911362E-02  4.962132271279E-02  5.036214658001E-02  5.113730083055E-02
  5.194833045975E-02  5.279684814090E-02  5.368453712283E-02  5.461315422256E-02
  5.558453290608E-02  5.660058644785E-02  5.766331115679E-02  5.877478965364E-02
  5.993719418122E-02  6.115278992592E-02  6.242393832561E-02  6.375310033606E-02
  6.514283962563E-02  6.659582566624E-02  6.811483668802E-02  6.970276246608E-02
  7.136260691069E-02  7.309749043766E-02  7.491065210390E-02  7.584763235712E-02
  7.680545150477E-02  7.778454860449E-02  7.878537044543E-02  7.980837159050E-02
  8.085401441694E-02  8.192276915580E-02  8.301511393116E-02  8.413153479996E-02
  8.527252579351E-02  8.643858896158E-02  8.763023442051E-02  8.884798040648E-02
  9.009235333529E-02  9.136388787006E-02  9.266312699827E-02  9.399062211949E-02
  9.534693314509E-02  9.673262861122E-02  9.814828580589E-02  9.959449091103E-02
  1.010718391599E-01  1.025809350098E-01  1.041223923292E-01  1.056968345984E-01
  1.073048951216E-01  1.089472172461E-01  1.106244545868E-01  1.123372712472E-01
  1.140863420323E-01  1.158723526436E-01  1.176959998449E-01  1.195579915864E-01
  1.214590470716E-01  1.233998967489E-01  1.253812822066E-01  1.274039559482E-01
  1.294686810199E-01  1.315762304603E-01  1.337273865380E-01  1.359229397399E-01
  1.381636874687E-01  1.404504324044E-01  1.427839804829E-01  1.451651384398E-01
  1.475947108651E-01  1.500734967135E-01  1.526022852111E-01  1.551818511009E-01
  1.578129491668E-01  1.604963079794E-01  1.632326228070E-01  1.660225476402E-01
  1.688666862849E-01  1.717655824819E-01  1.747197090259E-01  1.777294558623E-01
  1.807951171589E-01  1.839168773608E-01  1.870947962596E-01  1.903287931234E-01
  1.936186299628E-01  1.969638940273E-01  2.003639796591E-01  2.038180696545E-01
  2.073251163177E-01  2.108838224169E-01  2.144926222878E-01  2.181496633534E-01
  2.218527883592E-01  2.255995186434E-01  2.293870387832E-01  2.332121829664E-01
  2.370714234463E-01  2.409608614308E-01  2.448762207408E-01  2.488128445454E-01
  2.527656954402E-01  2.567293590765E-01  2.606980514782E-01  2.646656300959E-01
  2.686256085436E-01  2.725711748474E-01  2.764952129110E-01  2.803903267642E-01
  2.842488670250E-01  2.880629588718E-01  2.918245306945E-01  2.955253424913E-01
  2.991570129927E-01  3.027110444568E-01  3.061788440804E-01  3.095517410319E-01
  3.128209982377E-01  3.159778182494E-01  3.190133427987E-01  3.219186459968E-01
  3.246847215733E-01  3.273024650521E-01  3.297626523278E-01  3.320559167140E-01
  3.341727271634E-01  3.361033709671E-01  3.378379448061E-01  3.393663584903E-01
  3.406783560388E-01  3.417635588844E-01  3.426115358449E-01  3.432119040762E-01
  3.435544644304E-01  3.436293734831E-01  3.434273529396E-01  3.429399352103E-01
  3.421597416996E-01  3.410807878876E-01  3.396988067097E-01  3.380115792462E-01
  3.360192595127E-01  3.337246784195E-01  3.311336109744E-01  3.282547888280E-01
  3.250989919804E-01  3.216775607808E-01  3.180020755821E-01  3.140845742467E-01
  3.099373743854E-01  3.055730431686E-01  3.010043462861E-01  2.962442010866E-01
  2.913056317601E-01  2.862017264528E-01  2.809455962428E-01  2.755503358925E-01
  2.700289863088E-01  2.643944986542E-01  2.586597000698E-01  2.528372609868E-01
  2.469396640177E-01  2.409791744349E-01  2.349678122500E-01  2.289173259204E-01
  2.228391677120E-01  2.167444707509E-01  2.106440277979E-01  2.045482717765E-01
  1.984672580837E-01  1.924106487069E-01  1.863876981623E-01  1.804072412661E-01
  1.744776827398E-01  1.686069886417E-01  1.628026796106E-01  1.570718258958E-01
  1.514210441420E-01  1.458564958858E-01  1.403838877166E-01  1.350084730434E-01
  1.297350554038E-01  1.245679932462E-01  1.195112061082E-01  1.145681821111E-01
  1.097419866855E-01  1.050352724399E-01  1.004502900800E-01  9.598890028782E-02
  9.165258646410E-02  8.744246823983E-02  8.335931566219E-02  7.940356396023E-02
  7.557532879738E-02  7.187442191969E-02  6.830036711092E-02  6.485241636969E-02
  6.152956622393E-02  5.833057410626E-02  5.525397471453E-02  5.229809628766E-02
  4.946107673122E-02  4.674087953263E-02  4.413530941027E-02  4.164202764664E-02
  3.925856706067E-02  3.698234657942E-02  3.481068537477E-02  3.274081653555E-02
  3.076990025021E-02  2.889503647968E-02  2.711327710421E-02  2.542163753143E-02
  2.381710775646E-02  2.229666286751E-02  2.085727299293E-02  1.949591268773E-02
  1.820956975900E-02  1.699525353096E-02  1.585000255394E-02  1.477089175422E-02
  1.375503903564E-02  1.279961133316E-02  1.190183012487E-02  1.105897640863E-02
  1.026839515063E-02  9.527499214663E-03  8.833772782060E-03  8.184774273919E-03
  7.578138789059E-03  7.011580072837E-03  6.482892033848E-03  5.989949827387E-03
  5.530710526293E-03  5.103213401421E-03  4.705579835478E-03  4.336012895169E-03
  3.992796587595E-03  3.674294827569E-03  3.378950142929E-03  3.105282145057E-03
  2.851885791699E-03  2.617429468713E-03  2.400652916754E-03  2.200365027993E-03
  2.015441536891E-03  1.844822627794E-03  1.687510480775E-03  1.542566775622E-03
  1.409110172385E-03  1.286313785264E-03  1.173402665064E-03  1.069651303835E-03
  9.743811737643E-04  8.869583108737E-04  8.067909526486E-04  7.333272373187E-04
  6.660529712397E-04  6.044894696073E-04  5.481914746198E-04  4.967451541806E-04
  4.497661832997E-04  4.068979095125E-04  3.678096028811E-04  3.321947904772E-04
  2.997696746623E-04  2.702716339696E-04  2.434578049615E-04  2.191037430669E-04
  1.970021600980E-04  1.769617359011E-04  1.588060014009E-04  1.423722901556E-04
  1.275107554336E-04  1.140834497659E-04  1.019634638965E-04  9.103412205841E-05
  8.118823053408E-05  7.232737650938E-05  6.436127430672E-05  5.720715616885E-05
  5.078920486869E-05  4.503802553129E-05  3.989015417358E-05  3.528760059142E-05
  3.117742334938E-05  2.751133475604E-05  2.424533383311E-05  2.133936540981E-05
  1.875700359340E-05  1.646515798148E-05  1.443380109074E-05  1.263571558055E-05
  1.104625994668E-05  9.643151451361E-06  8.406265140469E-06  7.317447876834E-06
  6.360346391043E-06  5.520248417727E-06  4.783936046622E-06  4.139550474017E-06
  3.576467392015E-06  3.085182300635E-06  2.657205071674E-06  2.284963133784E-06
  1.961712685724E-06  1.681457379596E-06  1.438873948404E-06  1.229244282660E-06
  1.048393489381E-06  8.926334937703E-07  7.587117693937E-07  6.437648069175E-07
  5.452759545486E-07  4.610372853487E-07  3.891151676591E-07  3.278192350414E-07
  2.756744714481E-07  2.313961458490E-07  1.938673482633E-07  1.621188961102E-07
  1.353113960149E-07  1.127192616893E-07  9.371650326838E-08  7.776411751904E-08
  6.439892166625E-08  5.322368619489E-08  4.389843390547E-08  3.613278372714E-08
  2.967922833935E-08  2.432724453422E-08  1.989814448323E-08  1.624058466915E-08
  1.322665722971E-08  1.074849585227E-08  8.715335184400E-09  7.050969006137E-09
  5.691558173446E-09  4.583744614163E-09  3.683032465719E-09  2.952401814995E-09
  2.361124462599E-09  1.883754713997E-09  1.499271425049E-09  1.190350426086E-09
  9.427490421557E-10  7.447867420918E-10  5.869080092716E-10  4.613153547332E-10
  3.616620100022E-10  2.827952625673E-10  2.205426501698E-10  1.715343284203E-10
  1.330558859055E-10  1.029267168493E-10  7.939978725892E-11  6.107925885584E-11
  4.685297738447E-11  3.583729843447E-11  2.733212404695E-11  2.078436547107E-11
  1.575833899798E-11  1.191184950271E-11  8.976926099672E-12  6.744351404303E-12
  5.051274904317E-12  3.771325925467E-12  2.806746161465E-12  2.082148800945E-12
  1.539583591179E-12  1.134647029583E-12  8.334262494035E-13  6.101057609830E-13
  4.450994722767E-13  3.235975725221E-13  2.344399635482E-13  1.692458437222E-13
  1.217435291695E-13  8.725625457027E-14  6.230904768971E-14  4.432924658765E-14
  3.141918098218E-14  2.218426190395E-14  1.560345662778E-14  1.093206516771E-14
  7.629020202578E-15  5.302733789148E-15  3.670916195271E-15  2.530880093606E-15
  1.737679518267E-15  1.188083927805E-15  8.088759718993E-16  5.483424951902E-16
  3.701131686283E-16  2.487179156731E-16  1.663973690634E-16  1.108228635498E-16
  7.347374761972E-17  4.848763713831E-17  3.184942865634E-17  2.082186129847E-17
  1.354752275300E-17  8.771976950026E-18  5.652060116891E-18  3.623779734151E-18
  2.311724569984E-18  1.467244952150E-18  9.264747657633E-19  5.819695422907E-19
  3.636403758901E-19  0.000000000000E+00  0.000000000000E+00  0.000000000000E+00
  0.000000000000E+00
</data>
</radfunc>
</valence-charge>
<pseudocore-charge matching-radius="1.40947756620"
 number-of-continuous-derivatives="4">
<annotation model-charge-form="Teter function with specified parameters" />
<radfunc>
<data npts="290">
  1.674961772416E+00  1.674921470649E+00  1.674800986166E+00  1.674599946770E+00
  1.674320370880E+00  1.673952647779E+00  1.673483807056E+00  1.672946692305E+00
  1.672342442823E+00  1.671637361689E+00  1.670842057438E+00  1.669976945220E+00
  1.668930472596E+00  1.667836444687E+00  1.666544438311E+00  1.665252578392E+00
  1.663763073511E+00  1.662349305209E+00  1.660757771870E+00  1.658966313817E+00
  1.656950060756E+00  1.655156568641E+00  1.653185593743E+00  1.651019803603E+00
  1.648640221678E+00  1.646026081657E+00  1.643154671067E+00  1.640817429351E+00
  1.638310244347E+00  1.635621035469E+00  1.632736905836E+00  1.629644093726E+00
  1.626327922194E+00  1.622772746989E+00  1.618961902933E+00  1.614877648981E+00
  1.610501112229E+00  1.605812231246E+00  1.602502317063E+00  1.599037507931E+00
  1.595410906888E+00  1.591615345112E+00  1.587643374831E+00  1.583487262460E+00
  1.579138982029E+00  1.574590208957E+00  1.569832314263E+00  1.564856359281E+00
  1.559653090987E+00  1.554212938026E+00  1.548526007562E+00  1.542582083064E+00
  1.536370623166E+00  1.529880761749E+00  1.523101309399E+00  1.516020756422E+00
  1.508627277591E+00  1.500908738843E+00  1.492852706131E+00  1.484446456675E+00
  1.475676992856E+00  1.466531059033E+00  1.456995161558E+00  1.447055592304E+00
  1.436698456019E+00  1.425909701855E+00  1.414675159422E+00  1.408886266640E+00
  1.402980579735E+00  1.396956312887E+00  1.390811681454E+00  1.384544903727E+00
  1.378154202796E+00  1.371637808511E+00  1.364993959545E+00  1.358220905572E+00
  1.351316909551E+00  1.344280250131E+00  1.337109224164E+00  1.329802149346E+00
  1.322357366981E+00  1.314773244874E+00  1.307048180345E+00  1.299180603389E+00
  1.291168979960E+00  1.283011815398E+00  1.274707658000E+00  1.266255102724E+00
  1.257652795048E+00  1.248899434969E+00  1.239993781150E+00  1.230934655220E+00
  1.221720946217E+00  1.212351615190E+00  1.202825699944E+00  1.193142319936E+00
  1.183300681324E+00  1.173300082161E+00  1.163139917731E+00  1.152819686035E+00
  1.142338993414E+00  1.131697560304E+00  1.120895227130E+00  1.109931960318E+00
  1.098807858431E+00  1.087523158417E+00  1.076078241959E+00  1.064473641921E+00
  1.052710048876E+00  1.040788317713E+00  1.028709474293E+00  1.016474722163E+00
  1.004085449294E+00  9.915432348300E-01  9.788498558437E-01  9.660072940562E-01
  9.530177425191E-01  9.398836122261E-01  9.266075386328E-01  9.131923880575E-01
  8.996412639357E-01  8.859575128981E-01  8.721447306420E-01  8.582067675598E-01
  8.441477340932E-01  8.299720057736E-01  8.156842279102E-01  8.012893198869E-01
  7.867924790235E-01  7.721991839591E-01  7.575151975110E-01  7.427465689622E-01
  7.278996357293E-01  7.129810243608E-01  6.979976508144E-01  6.829567199620E-01
  6.678657242697E-01  6.527324415982E-01  6.375649320728E-01  6.223715339663E-01
  6.071608585446E-01  5.919417838202E-01  5.767234471640E-01  5.615152367242E-01
  5.463267816056E-01  5.311679407631E-01  5.160487905669E-01  5.009796110013E-01
  4.859708704614E-01  4.710332091187E-01  4.561774208304E-01  4.414144335746E-01
  4.267552883989E-01  4.122111168805E-01  3.977931170995E-01  3.835125281417E-01
  3.693806031524E-01  3.554085809758E-01  3.416076564260E-01  3.279889492469E-01
  3.145634718306E-01  3.013420957797E-01  2.883355174103E-01  2.755542223094E-01
  2.630084490732E-01  2.507081523710E-01  2.386629654916E-01  2.268821625499E-01
  2.153746205404E-01  2.041487814468E-01  1.932126146273E-01  1.825735797113E-01
  1.722385902574E-01  1.622139784351E-01  1.525054610030E-01  1.431181068679E-01
  1.340563065149E-01  1.253237436078E-01  1.169233690583E-01  1.088573778674E-01
  1.011271890371E-01  9.373342884661E-02  8.667591777796E-02  7.995366136237E-02
  7.356484520266E-02  6.750683440553E-02  6.177617763223E-02  5.636861594619E-02
  5.127909660212E-02  4.650179188193E-02  4.203012304031E-02  3.785678937497E-02
  3.397380238599E-02  3.037252493386E-02  2.704371524847E-02  2.397757558114E-02
  2.116380523035E-02  1.859165760920E-02  1.625000096000E-02  1.412738225994E-02
  1.221209380249E-02  1.049224188278E-02  8.955816963987E-03  7.590764655641E-03
  6.385056796387E-03  5.326761903320E-03  4.404114229450E-03  3.605580661033E-03
  2.919924688544E-03  2.336266699838E-03  1.844139872304E-03  1.433540982895E-03
  1.094975511135E-03  8.194964803176E-04  5.987365656886E-04  4.249330945379E-04
  2.909456706292E-04  1.902662725239E-04  1.170218001337E-04  6.596917377924E-05
  3.248322239458E-05  1.253772919619E-05  2.680130846473E-06  4.864080492258E-10
  2.095441708020E-06  7.028009654960E-06  1.328406431041E-05  1.972650315779E-05
  2.554806553216E-05  3.022380365285E-05  3.346418492505E-05  3.516975974867E-05
  3.538825850310E-05  3.427488613746E-05  3.205646534626E-05  2.899994307843E-05
  2.538562443937E-05  2.148533801674E-05  1.754557302502E-05  1.377546756445E-05
  1.033937502402E-05  7.353598387434E-06  4.886765646204E-06  2.963228648134E-06
  1.568806418034E-06  6.581648574733E-07  1.631287949151E-07  1.258960031265E-09
  8.409319677264E-08  3.245440151033E-07  6.430577850863E-07  9.722676147863E-07
  1.260004462353E-06  1.470661139798E-06  1.585023520083E-06  1.598785090587E-06
  1.520038864916E-06  1.366090150816E-06  1.159952460341E-06  9.268769711940E-07
  6.912258429926E-07  4.739360603827E-07  2.907399313763E-07  1.512189011248E-07
  5.867760896200E-08  1.074365512448E-08  5.329364399566E-10  1.817651938527E-08
  5.248635878029E-08  9.254450607797E-08  1.290316829301E-07  1.551614647410E-07
  1.671489341012E-07  1.642093070166E-07  1.481441624968E-07  1.226227329647E-07
  9.229723578055E-08  6.190104492744E-08  3.546630870282E-08  1.576626200917E-08
  4.042565458150E-09  2.705998544529E-11  0.000000000000E+00  0.000000000000E+00
  0.000000000000E+00  0.000000000000E+00  0.000000000000E+00  0.000000000000E+00
  0.000000000000E+00  0.000000000000E+00
</data>
</radfunc>
</pseudocore-charge>
<semilocal-potentials set="lj">
<slps n="3" l="s" j="0.5" rc="1.76802297978" eref="-0.283513908819">
<radfunc>
<data npts="290">
  4.024352267888E+00  4.024289021480E+00  4.024099405372E+00  4.023781144814E+00
  4.023334672116E+00  4.022740568639E+00  4.021971822701E+00  4.021075656901E+00
  4.020047815433E+00  4.018822270267E+00  4.017406250613E+00  4.015825693128E+00
  4.013858161341E+00  4.011736637744E+00  4.009146990705E+00  4.006467392411E+00
  4.003267104362E+00  4.000121123422E+00  3.996454831252E+00  3.992172074878E+00
  3.987157431172E+00  3.982526500582E+00  3.977255418477E+00  3.971247473619E+00
  3.964390807770E+00  3.956556170326E+00  3.947594415698E+00  3.940031015292E+00
  3.931655694632E+00  3.922377775111E+00  3.912096912116E+00  3.900702280365E+00
  3.888071749630E+00  3.874071068230E+00  3.858553076616E+00  3.841356979242E+00
  3.822307709440E+00  3.801215429432E+00  3.785918331769E+00  3.769557998704E+00
  3.752066987313E+00  3.733374932609E+00  3.713408638307E+00  3.692092208765E+00
  3.669347227265E+00  3.645092985999E+00  3.619246773191E+00  3.591724222785E+00
  3.562439731956E+00  3.531306951410E+00  3.498239352918E+00  3.463150877815E+00
  3.425956669203E+00  3.386573889335E+00  3.344922622058E+00  3.300926858272E+00
  3.254515560038E+00  3.205623796306E+00  3.154193940136E+00  3.100176913854E+00
  3.043533464779E+00  2.984235450073E+00  2.922267104921E+00  2.857626263826E+00
  2.790325500348E+00  2.720393146357E+00  2.647874147994E+00  2.610663410000E+00
  2.572830712266E+00  2.534386591614E+00  2.495342695844E+00  2.455711778304E+00
  2.415507686497E+00  2.374745344380E+00  2.333440728001E+00  2.291610834148E+00
  2.249273641732E+00  2.206448065629E+00  2.163153902772E+00  2.119411770317E+00
  2.075243035761E+00  2.030669738966E+00  1.985714506081E+00  1.940400455467E+00
  1.894751095778E+00  1.848790216462E+00  1.802541771037E+00  1.756029753605E+00
  1.709278069174E+00  1.662310398480E+00  1.615150058122E+00  1.567819856963E+00
  1.520341949864E+00  1.472737689981E+00  1.425027480963E+00  1.377230630569E+00
  1.329365207306E+00  1.281447901894E+00  1.233493895409E+00  1.185516736165E+00
  1.137528227420E+00  1.089538328162E+00  1.041555069235E+00  9.935844871892E-01
  9.456305782150E-01  8.976952745447E-01  8.497784456740E-01  8.018779266693E-01
  7.539895757199E-01  7.061073629314E-01  6.582234921368E-01  6.103285572378E-01
  5.624117342582E-01  5.144610099042E-01  4.664634469685E-01  4.184054864052E-01
  3.702732853165E-01  3.220530894492E-01  2.737316380971E-01  2.252965985462E-01
  1.767370263979E-01  1.280438472550E-01  7.921035439183E-02  3.023271614365E-02
 -1.888951413299E-02 -6.815289353408E-02 -1.175495993383E-01 -1.670669625647E-01
 -2.166870355932E-01 -2.663862046250E-01 -3.161348581441E-01 -3.658971227808E-01
 -4.156306779815E-01 -4.652866606647E-01 -5.148096705915E-01 -5.641378863842E-01
 -6.132033010691E-01 -6.619320846108E-01 -7.102450791572E-01 -7.580584306111E-01
 -8.052843576815E-01 -8.518320567574E-01 -8.976087377911E-01 -9.425207829050E-01
 -9.864750156751E-01 -1.029380065053E+00 -1.071147803707E+00 -1.111694836272E+00
 -1.150944008719E+00 -1.188825905834E+00 -1.225280299834E+00 -1.260257509541E+00
 -1.293719626501E+00 -1.325641562100E+00 -1.356011868380E+00 -1.384833285069E+00
 -1.412122966510E+00 -1.437912344997E+00 -1.462246591677E+00 -1.485183642803E+00