<?xml version="1.0" encoding="UTF-8" ?>
<psml version="1.1" energy_unit="hartree" length_unit="bohr"
 uuid="bb420920-53a0-11e8-7b04-9973fcdff410"
 xmlns="http://esl.cecam.org/PSML/ns/1.1">
<provenance creator="ONCVPSP-3.3.0+psml-3.3.0-73 (fully-relativistic)"
 date="2018-05-09">
<annotation action="semilocal-pseudopotential-generation"
 action-cont="projectors-generation" />
<input-file name="oncvpsp-input">
<![CDATA[# atsym z nc nv iexc psfile
Co 27 3 4 -116133 upf
# n l f
1 0 2.0
2 0 2.0
2 1 6.0
3 0 2.0
3 1 6.0
3 2 7.0
4 0 2.0
# lmax
2
# l rc ep ncon nbas qcut
0 1.2 0.0 4 7 10.0
1 1.2 0.0 4 7 10.0
2 1.55 0.0 4 7 10.2
# lloc lpopt rc5 dvloc0
4 5 1.2 0.0
# l nproj debl
0 2 0.8
1 2 0.8
2 2 0.8
# icmod fcfact
3 6 1.8
# epsh1 epsh2 depsh
-12.0 12.0 0.02
# rlmax drl
6.0 0.01
 0
]]>
</input-file>
</provenance>
<pseudo-atom-spec atomic-label="Co" atomic-number="27" z-pseudo="17"
 flavor="Hamann&apos;s oncvpsp" relativity="dirac" spin-dft="no"
 core-corrections="yes">
<annotation pseudo-energy="-143.054517542" />
<exchange-correlation>
<annotation oncvpsp-xc-code="-116133" oncvpsp-xc-type="libxc-interface" />
<libxc-info number-of-functionals="2">
<functional name="Perdew, Burke &amp; Ernzerhof SOL (GGA)" type="exchange"
 id="116" />
<functional name="Perdew, Burke &amp; Ernzerhof SOL (GGA)" type="correlation"
 id="133" />
</libxc-info>
</exchange-correlation>
<valence-configuration total-valence-charge="17">
<shell n="3" l="s" occupation="2" />
<shell n="3" l="p" occupation="6" />
<shell n="3" l="d" occupation="7" />
<shell n="4" l="s" occupation="2" />
</valence-configuration>
</pseudo-atom-spec>
<grid npts="457">
<annotation type="sampled from oncvpsp log grid"
 recipe="r(i:1..N) = r1*exp(a*(i-1)) + r=0; resampled"
 recipe-cont="r1: scale; a: step" scale="0.185185185185E-04"
 step="0.119285708653E-01" delta="0.500000000000E-02" rmax="44.1384555144" />
<grid-data>
  0.000000000000E+00  5.040192420950E-03  1.006738882075E-02  1.510268858140E-02
  2.010881910914E-02  2.522413632811E-02  3.052843244760E-02  3.564931321503E-02
  4.113555087463E-02  4.634708694971E-02  5.159968556889E-02  5.676637413542E-02
  6.245040443473E-02  6.788891108236E-02  7.292592018673E-02  7.833664953955E-02
  8.414882726703E-02  8.932039405154E-02  9.480979180144E-02  1.006365535764E-01
  1.068214128868E-01  1.120418749708E-01  1.175174659061E-01  1.232606540777E-01
  1.292845172121E-01  1.356027721566E-01  1.422298061135E-01  1.474117681829E-01
  1.527825284489E-01  1.583489655335E-01  1.641182086729E-01  1.700976468475E-01
  1.762949382462E-01  1.827180200740E-01  1.893751187181E-01  1.962747602834E-01
  2.034257815129E-01  2.108373411047E-01  2.159277978683E-01  2.211411586201E-01
  2.264803907538E-01  2.319485333081E-01  2.375486986963E-01  2.432840744777E-01
  2.491579251718E-01  2.551735941172E-01  2.613345053736E-01  2.676441656713E-01
  2.741061664073E-01  2.807241856890E-01  2.875019904283E-01  2.944434384852E-01
  3.015524808640E-01  3.088331639619E-01  3.162896318726E-01  3.239261287446E-01
  3.317470011970E-01  3.397567007939E-01  3.479597865779E-01  3.563609276650E-01
  3.649649059025E-01  3.737766185906E-01  3.828010812699E-01  3.920434305761E-01
  4.015089271639E-01  4.112029587013E-01  4.211310429362E-01  4.261846154515E-01
  4.312988308369E-01  4.364744168069E-01  4.417121098086E-01  4.470126551263E-01
  4.523768069878E-01  4.578053286717E-01  4.632989926157E-01  4.688585805271E-01
  4.744848834935E-01  4.801787020954E-01  4.859408465205E-01  4.917721366788E-01
  4.976734023189E-01  5.036454831467E-01  5.096892289445E-01  5.158054996918E-01
  5.219951656881E-01  5.282591076764E-01  5.345982169685E-01  5.410133955721E-01
  5.475055563190E-01  5.540756229948E-01  5.607245304708E-01  5.674532248364E-01
  5.742626635345E-01  5.811538154969E-01  5.881276612828E-01  5.951851932182E-01
  6.023274155368E-01  6.095553445233E-01  6.168700086576E-01  6.242724487615E-01
  6.317637181466E-01  6.393448827644E-01  6.470170213575E-01  6.547812256138E-01
  6.626386003212E-01  6.705902635250E-01  6.786373466873E-01  6.867809948476E-01
  6.950223667858E-01  7.033626351872E-01  7.118029868094E-01  7.203446226511E-01
  7.289887581230E-01  7.377366232204E-01  7.465894626991E-01  7.555485362515E-01
  7.646151186865E-01  7.737905001107E-01  7.830759861121E-01  7.924728979454E-01
  8.019825727207E-01  8.116063635934E-01  8.213456399565E-01  8.312017876360E-01
  8.411762090876E-01  8.512703235967E-01  8.614855674798E-01  8.718233942896E-01
  8.822852750211E-01  8.928726983213E-01  9.035871707012E-01  9.144302167496E-01
  9.254033793506E-01  9.365082199028E-01  9.477463185416E-01  9.591192743641E-01
  9.706287056565E-01  9.822762501244E-01  9.940635651259E-01  1.005992327907E+00
  1.018064235842E+00  1.030281006672E+00  1.042644378752E+00  1.055156111297E+00
  1.067817984633E+00  1.080631800449E+00  1.093599382054E+00  1.106722574639E+00
  1.120003245534E+00  1.133443284481E+00  1.147044603895E+00  1.160809139141E+00
  1.174738848811E+00  1.188835714997E+00  1.203101743577E+00  1.217538964500E+00
  1.232149432074E+00  1.246935225258E+00  1.261898447962E+00  1.277041229337E+00
  1.292365724089E+00  1.307874112778E+00  1.323568602132E+00  1.339451425357E+00
  1.355524842461E+00  1.371791140571E+00  1.388252634258E+00  1.404911665869E+00
  1.421770605859E+00  1.438831853130E+00  1.456097835367E+00  1.473571009392E+00
  1.491253861504E+00  1.509148907842E+00  1.527258694736E+00  1.545585799073E+00
  1.564132828662E+00  1.582902422606E+00  1.601897251677E+00  1.621120018697E+00
  1.640573458922E+00  1.660260340429E+00  1.680183464514E+00  1.700345666088E+00
  1.720749814081E+00  1.741398811850E+00  1.762295597592E+00  1.783443144764E+00
  1.804844462501E+00  1.826502596051E+00  1.848420627203E+00  1.870601674730E+00
  1.893048894827E+00  1.915765481564E+00  1.938754667343E+00  1.962019723351E+00
  1.985563960032E+00  2.009390727552E+00  2.033503416283E+00  2.057905457278E+00
  2.082600322765E+00  2.107591526639E+00  2.132882624958E+00  2.158477216458E+00
  2.184378943055E+00  2.210591490372E+00  2.237118588256E+00  2.263964011315E+00
  2.291131579451E+00  2.318625158405E+00  2.346448660305E+00  2.374606044229E+00
  2.403101316760E+00  2.431938532561E+00  2.461121794952E+00  2.490655256491E+00
  2.520543119569E+00  2.550789637004E+00  2.581399112648E+00  2.612375902000E+00
  2.643724412824E+00  2.675449105778E+00  2.707554495047E+00  2.740045148987E+00
  2.772925690775E+00  2.806200799065E+00  2.839875208653E+00  2.873953711157E+00
  2.908441155691E+00  2.943342449559E+00  2.978662558954E+00  3.014406509662E+00
  3.050579387777E+00  3.087186340431E+00  3.124232576516E+00  3.161723367434E+00
  3.199664047843E+00  3.238060016417E+00  3.276916736614E+00  3.316239737454E+00
  3.356034614303E+00  3.396307029675E+00  3.437062714031E+00  3.478307466599E+00
  3.520047156199E+00  3.562287722073E+00  3.605035174738E+00  3.648295596835E+00
  3.692075143997E+00  3.736380045725E+00  3.781216606273E+00  3.826591205549E+00
  3.872510300015E+00  3.918980423615E+00  3.966008188699E+00  4.013600286963E+00
  4.061763490407E+00  4.110504652292E+00  4.159830708119E+00  4.209748676617E+00
  4.260265660736E+00  4.311388848665E+00  4.363125514849E+00  4.415483021027E+00
  4.468468817279E+00  4.522090443087E+00  4.576355528404E+00  4.631271794745E+00
  4.686847056281E+00  4.743089220957E+00  4.800006291608E+00  4.857606367108E+00
  4.915897643513E+00  4.974888415235E+00  5.034587076218E+00  5.095002121133E+00
  5.156142146586E+00  5.218015852345E+00  5.280632042573E+00  5.343999627084E+00
  5.408127622609E+00  5.473025154080E+00  5.538701455929E+00  5.605165873401E+00
  5.672427863881E+00  5.740496998248E+00  5.809382962227E+00  5.879095557774E+00
  5.949644704467E+00  6.021040440921E+00  6.093292926212E+00  6.166412441326E+00
  6.240409390622E+00  6.315294303310E+00  6.391077834949E+00  6.467770768969E+00
  6.545384018196E+00  6.623928626415E+00  6.703415769932E+00  6.783856759171E+00
  6.865263040281E+00  6.947646196764E+00  7.031017951125E+00  7.115390166539E+00
  7.200774848537E+00  7.287184146720E+00  7.374630356480E+00  7.463125920758E+00
  7.552683431807E+00  7.643315632989E+00  7.735035420585E+00  7.827855845632E+00
  7.921790115779E+00  8.016851597169E+00  8.113053816335E+00  8.210410462131E+00
  8.308935387676E+00  8.408642612329E+00  8.509546323676E+00  8.611660879561E+00
  8.715000810115E+00  8.819580819837E+00  8.925415789675E+00  9.032520779151E+00
  9.140911028501E+00  9.250601960843E+00  9.361609184373E+00  9.473948494585E+00
  9.587635876520E+00  9.702687507039E+00  9.819119757123E+00  9.936949194208E+00
  1.005619258454E+01  1.017686689555E+01  1.029898929830E+01  1.042257716988E+01
  1.054764809592E+01  1.067421987307E+01  1.080231051155E+01  1.093193823768E+01
  1.106312149654E+01  1.119587895450E+01  1.133022950195E+01  1.146619225597E+01
  1.160378656304E+01  1.174303200180E+01  1.188394838582E+01  1.202655576645E+01
  1.217087443565E+01  1.231692492888E+01  1.246472802802E+01  1.261430476436E+01
  1.276567642153E+01  1.291886453859E+01  1.307389091305E+01  1.323077760401E+01
  1.338954693526E+01  1.355022149848E+01  1.371282415646E+01  1.387737804634E+01
  1.404390658290E+01  1.421243346189E+01  1.438298266343E+01  1.455557845540E+01
  1.473024539686E+01  1.490700834162E+01  1.508589244172E+01  1.526692315102E+01
  1.545012622884E+01  1.563552774358E+01  1.582315407650E+01  1.601303192542E+01
  1.620518830853E+01  1.639965056823E+01  1.659644637505E+01  1.679560373155E+01
  1.699715097633E+01  1.720111678804E+01  1.740753018950E+01  1.761642055177E+01
  1.782781759840E+01  1.804175140958E+01  1.825825242649E+01  1.847735145561E+01
  1.869907967308E+01  1.892346862915E+01  1.915055025270E+01  1.938035685574E+01
  1.961292113800E+01  1.984827619166E+01  2.008645550596E+01  2.032749297203E+01
  2.057142288770E+01  2.081827996235E+01  2.106809932190E+01  2.132091651376E+01
  2.157676751193E+01  2.183568872207E+01  2.209771698673E+01  2.236288959057E+01
  2.263124426566E+01  2.290281919685E+01  2.317765302721E+01  2.345578486354E+01
  2.373725428190E+01  2.402210133328E+01  2.431036654928E+01  2.460209094787E+01
  2.489731603925E+01  2.519608383172E+01  2.549843683770E+01  2.580441807975E+01
  2.611407109671E+01  2.642743994987E+01  2.674456922927E+01  2.706550406002E+01
  2.739029010874E+01  2.771897359004E+01  2.805160127312E+01  2.838822048840E+01
  2.872887913426E+01  2.907362568387E+01  2.942250919208E+01  2.977557930239E+01
  3.013288625401E+01  3.049448088906E+01  3.086041465973E+01  3.123073963565E+01
  3.160550851128E+01  3.198477461341E+01  3.236859190877E+01  3.275701501168E+01
  3.315009919182E+01  3.354790038212E+01  3.395047518670E+01  3.435788088895E+01
  3.477017545961E+01  3.518741756513E+01  3.560966657591E+01  3.603698257482E+01
  3.646942636572E+01  3.690705948211E+01  3.734994419589E+01  3.779814352624E+01
  3.825172124856E+01  3.871074190354E+01  3.917527080638E+01  3.964537405606E+01
  4.012111854473E+01  4.060257196727E+01  4.108980283088E+01  4.158288046485E+01
  4.208187503042E+01  4.258685753079E+01  4.309789982116E+01  4.361507461901E+01
  4.413845551444E+01
</grid-data>
</grid>
<valence-charge total-charge="17" is-unscreening-charge="yes"
 rescaled-to-z-pseudo="no">
<radfunc>
<data npts="457">
  9.765506511392E+00  9.774047090786E+00  9.799573956989E+00  9.842148988719E+00
  9.901316801335E+00  9.979070017589E+00  1.007808937127E+01  1.019137013894E+01
  1.033190252793E+01  1.048364389038E+01  1.065443334538E+01  1.083976925442E+01
  1.106333864408E+01  1.129634102005E+01  1.152859899494E+01  1.179549788088E+01
  1.210200406669E+01  1.239170826433E+01  1.271641838986E+01  1.308011369737E+01
  1.348715560946E+01  1.384718346539E+01  1.424061604669E+01  1.467024563945E+01
  1.513902941130E+01  1.565008240687E+01  1.620666514921E+01  1.665601444309E+01
  1.713434403810E+01  1.764314345225E+01  1.818391404535E+01  1.875815560109E+01
  1.936734997547E+01  2.001294137202E+01  2.069631275886E+01  2.141875789817E+01
  2.218144841649E+01  2.298539530813E+01  2.354468792505E+01  2.412285767499E+01
  2.472002398568E+01  2.533623979650E+01  2.597148254194E+01  2.662564437725E+01
  2.729852162110E+01  2.798980339665E+01  2.869905946091E+01  2.942572722330E+01
  3.016909796762E+01  3.092830230818E+01  3.170229493077E+01  3.248983869279E+01
  3.328948818481E+01  3.409957288842E+01  3.491818010272E+01  3.574313785496E+01
  3.657199805887E+01  3.740202023867E+01  3.823015619621E+01  3.905303606351E+01
  3.986695625260E+01  4.066786988731E+01  4.145138037718E+01  4.221273886862E+01
  4.294684638128E+01  4.364826150432E+01  4.431121458365E+01  4.462638024502E+01
  4.492962937246E+01  4.522015946637E+01  4.549715313717E+01  4.575977957725E+01
  4.600719620249E+01  4.623855046951E+01  4.645298187473E+01  4.664962414065E+01
  4.682760759355E+01  4.698606173653E+01  4.712411802014E+01  4.724091281200E+01
  4.733559056535E+01  4.740730718482E+01  4.745523358624E+01  4.747855944523E+01
  4.747649712732E+01  4.744828579039E+01  4.739319564743E+01  4.731053237552E+01
  4.719964165412E+01  4.705991381288E+01  4.689078856647E+01  4.669175981094E+01
  4.646238045291E+01  4.620226724017E+01  4.591110555892E+01  4.558865415998E+01
  4.523474977369E+01  4.484931157001E+01  4.443234541821E+01  4.398394789821E+01
  4.350431001354E+01  4.299372055463E+01  4.245256906002E+01  4.188134832245E+01
  4.128065638734E+01  4.065119799139E+01  3.999378539127E+01  3.930933853417E+01
  3.859888452567E+01  3.786355635438E+01  3.710459083784E+01  3.632332576043E+01
  3.552119618092E+01  3.469972989540E+01  3.386054205012E+01  3.300532890847E+01
  3.213586078706E+01  3.125397418659E+01  3.036156315535E+01  2.946056993457E+01
  2.855297494761E+01  2.764078620657E+01  2.672602822182E+01  2.581073051126E+01
  2.489691581635E+01  2.398658814144E+01  2.308172074045E+01  2.218424418183E+01
  2.129603462651E+01  2.041890245603E+01  1.955458138819E+01  1.870471821430E+01
  1.787086328778E+01  1.705446188520E+01  1.625684655102E+01  1.547923052382E+01
  1.472270232670E+01  1.398822158689E+01  1.327661613022E+01  1.258858037549E+01
  1.192467503191E+01  1.128532808071E+01  1.067083699992E+01  1.008137217009E+01
  9.516981378703E+00  8.977595322796E+00  8.463033994060E+00  7.973013817699E+00
  7.507155407382E+00  7.064991793099E+00  6.645976977221E+00  6.249494676638E+00
  5.874867115288E+00  5.521363741618E+00  5.188209759017E+00  4.874594795652E+00
  4.579682992317E+00  4.302624076373E+00  4.042560169052E+00  3.798632203165E+00
  3.569985873330E+00  3.355777139451E+00  3.155177232066E+00  2.967377161017E+00
  2.791591727773E+00  2.627063047357E+00  2.473063588983E+00  2.328898746223E+00
  2.193908947939E+00  2.067471320622E+00  1.949000911516E+00  1.837951480336E+00
  1.733815865846E+00  1.636125932438E+00  1.544452101335E+00  1.458402471530E+00
  1.377621537086E+00  1.301787236544E+00  1.230602697470E+00  1.163785259435E+00
  1.101066250710E+00  1.042190583059E+00  9.869164098261E-01  9.350147588296E-01
  8.862691441625E-01  8.404751607830E-01  7.974400654983E-01  7.569823476991E-01
  7.189312929386E-01  6.831265421938E-01  6.494176493942E-01  6.176636395532E-01
  5.877325696022E-01  5.595010937988E-01  5.328540353630E-01  5.076839657950E-01
  4.838907931366E-01  4.613813602644E-01  4.400690541402E-01  4.198734267937E-01
  4.007198286781E-01  3.825390549121E-01  3.652670048051E-01  3.488443549601E-01
  3.332162461483E-01  3.183319840622E-01  3.041447539711E-01  2.906113492302E-01
  2.776919135235E-01  2.653496966638E-01  2.535508237140E-01  2.422640771495E-01
  2.314606917357E-01  2.211141617612E-01  2.112000602353E-01  2.016958696342E-01
  1.925808237602E-01  1.838357602646E-01  1.754429833727E-01  1.673861363457E-01
  1.596500832109E-01  1.522207992923E-01  1.450852700780E-01  1.382313979688E-01
  1.316479164578E-01  1.253243113056E-01  1.192507482840E-01  1.134180070768E-01
  1.078174209395E-01  1.024408217357E-01  9.728048998102E-02  9.232910954560E-02
  8.757972667693E-02  8.302571302556E-02  7.866073236935E-02  7.447871074909E-02
  7.047380974390E-02  6.664040263011E-02  6.297305318300E-02  5.946649689543E-02
  5.611562440249E-02  5.291546691521E-02  4.986118348119E-02  4.694804990312E-02
  4.417144915995E-02  4.152686318850E-02  3.900986589537E-02  3.661611727529E-02
  3.434135856173E-02  3.218140824783E-02  3.013215895666E-02  2.818957505041E-02
  2.634969091402E-02  2.460860984853E-02  2.296250351458E-02  2.140761186973E-02
  1.994024354586E-02  1.855677661425E-02  1.725365968647E-02  1.602741329896E-02
  1.487463152877E-02  1.379198378747E-02  1.277621673960E-02  1.182415629227E-02
  1.093270960330E-02  1.009886705655E-02  9.319704155492E-03  8.592383289627E-03
  7.914155331842E-03  7.282361030165E-03  6.694432162425E-03  6.147892428288E-03
  5.640358059202E-03  5.169538132881E-03  4.733234585027E-03  4.329341916674E-03
  3.955846600949E-03  3.610826197814E-03  3.292448189643E-03  2.998968554065E-03
  2.728730093493E-03  2.480160543011E-03  2.251770479978E-03  2.042151059758E-03
  1.849971602467E-03  1.673977055649E-03  1.512985357322E-03  1.365884723041E-03
  1.231630879451E-03  1.109244265450E-03  9.978072204463E-04  8.964611775168E-04
  8.044038774017E-04  7.208866174620E-04  6.452115478433E-04  5.767290252841E-04
  5.148350332672E-04  4.589686755674E-04  4.086097487310E-04  3.632763976353E-04
  3.225228570422E-04  2.859372809722E-04  2.531396607927E-04  2.237798321274E-04
  1.975355700461E-04  1.741107714740E-04  1.532337233561E-04  1.346554548036E-04
  1.181481712295E-04  1.035037683271E-04  9.053242364715E-05  7.906126347383E-05
  6.893310266960E-05  6.000525515663E-05  5.214841270457E-05  4.524558970725E-05
  3.919113164384E-05  3.388978493204E-05  2.925582589020E-05  2.521224653152E-05
  2.168999491687E-05  1.862726779450E-05  1.596885325538E-05  1.366552113513E-05
  1.167345889732E-05  9.953750740551E-06  8.471897684903E-06  7.197376411714E-06
  6.103234656230E-06  5.165720985347E-06  4.363946832681E-06  3.679578710623E-06
  3.096558573610E-06  2.600850367895E-06  2.180210870530E-06  1.823982992858E-06
  1.522909800121E-06  1.268967577688E-06  1.055216385521E-06  8.756664990277E-07
  7.251596056875E-07  5.992628646215E-07  4.941755642482E-07  4.066459424836E-07
  3.338979911287E-07  2.735672278323E-07  2.236442678349E-07  1.824253915001E-07
  1.484693574027E-07  1.205597788856E-07  9.767243284470E-08  7.894692549361E-08
  6.366219703608E-08  5.121539929997E-08  4.110372868209E-08  3.290884124978E-08
  2.628351766901E-08  2.094028292829E-08  1.664171976729E-08  1.319224548101E-08
  1.043114954287E-08  8.226714469076E-09  6.471264727838E-09  5.077008478666E-09
  3.972554699124E-09  3.100004008636E-09  2.412525409971E-09  1.872343411235E-09
  1.449070728268E-09  1.118331142064E-09  8.597401890413E-10  6.597593959386E-10
  5.048206822029E-10  3.851300607479E-10  2.929420611647E-10  2.221494205620E-10
  1.679510260704E-10  1.265840061454E-10  9.510824465623E-11  7.123359976737E-11
  5.318180019038E-11  3.957640974727E-11  2.935543703230E-11  2.170215494071E-11
  1.599051507292E-11  1.174222059750E-11  8.593080540812E-12  6.266727953012E-12
  4.554160465651E-12  3.297868434040E-12  2.379565039610E-12  1.710734448604E-12
  1.225376819162E-12  8.744596791789E-13  6.216898472216E-13  4.403035232059E-13
  3.106384724258E-13  2.183046897111E-13  1.528112846046E-13  1.065397974249E-13
  7.397954756273E-14  5.116039232850E-14  3.523361611854E-14  2.416352161948E-14
  1.650141303356E-14  1.122064707648E-14  7.596756884690E-15  5.120702349465E-15
  3.436362408720E-15  2.295690692610E-15  1.526684706311E-15  1.010609086942E-15
  6.658722413126E-16  4.366648186778E-16  2.849905724611E-16  1.851027629127E-16
  1.196383023617E-16  7.694440155294E-17  4.923879949379E-17  3.134984653576E-17
  1.985795348921E-17  1.251347465024E-17  7.844018965592E-18  4.890905157458E-18
  3.033206700686E-18  1.870892638763E-18  1.147628738159E-18  7.000529739766E-19
  4.246276202349E-19  2.560966933359E-19  1.535636027818E-19  9.154424260552E-20
  5.425023986470E-20  3.195723954281E-20  1.871123783107E-20  1.088854220873E-20
  6.297073804352E-21  3.618903494610E-21  2.066577574495E-21  0.000000000000E+00
  0.000000000000E+00  0.000000000000E+00  0.000000000000E+00  0.000000000000E+00
  0.000000000000E+00  0.000000000000E+00  0.000000000000E+00  0.000000000000E+00
  0.000000000000E+00  0.000000000000E+00  0.000000000000E+00  0.000000000000E+00
  0.000000000000E+00  0.000000000000E+00  0.000000000000E+00  0.000000000000E+00
  0.000000000000E+00
</data>
</radfunc>
</valence-charge>
<pseudocore-charge matching-radius="0.401508927164"
 number-of-continuous-derivatives="4">
<annotation model-charge-form="Teter function with specified parameters" />
<radfunc>
<data npts="290">
  2.667348581688E+02  2.666938734535E+02  2.665713769155E+02  2.663670791640E+02
  2.660831776191E+02  2.657101289895E+02  2.652350975381E+02  2.646917152100E+02
  2.640177092819E+02  2.632900609939E+02  2.624712121308E+02  2.615827840949E+02
  2.605112978266E+02  2.593948454014E+02  2.582821940549E+02  2.570038649356E+02
  2.555361695017E+02  2.541492337842E+02  2.525950288794E+02  2.508545804193E+02
  2.489070830891E+02  2.471848057080E+02  2.453029650362E+02  2.432481896309E+02
  2.410062833327E+02  2.385622400374E+02  2.359002770385E+02  2.337508922990E+02
  2.314624559905E+02  2.290275910610E+02  2.264387790587E+02  2.236884016564E+02
  2.207687909720E+02  2.176722897370E+02  2.143913224084E+02  2.109184783464E+02
  2.072466081816E+02  2.033689344625E+02  2.006663576450E+02  1.978677995830E+02
  1.949716979978E+02  1.919766593428E+02  1.888814823986E+02  1.856851833930E+02
  1.823870226262E+02  1.789865325567E+02  1.754835472800E+02  1.718782332981E+02
  1.681711214471E+02  1.643631398076E+02  1.604556473828E+02  1.564504682756E+02
  1.523499260465E+02  1.481568778749E+02  1.438747480819E+02  1.395075605080E+02
  1.350599691684E+02  1.305372865356E+02  1.259455087243E+02  1.212913367832E+02
  1.165821932236E+02  1.118262328513E+02  1.070323469080E+02  1.022101594821E+02
  9.737001511600E+01  9.252295652411E+01  8.768069134782E+01  8.526518587239E+01
  8.285554691340E+01  8.045340266702E+01  7.806041203653E+01  7.567826204770E+01
  7.330866503345E+01  7.095335558427E+01  6.861408726255E+01  6.629262907963E+01
  6.399076173600E+01  6.171027362638E+01  5.945295661290E+01  5.722060157139E+01
  5.501499371747E+01  5.283790772101E+01  5.069110261968E+01  4.857631654429E+01
  4.649526127088E+01  4.444961661685E+01  4.244102470087E+01  4.047108408850E+01
  3.854134384834E+01  3.665329754559E+01  3.480837720290E+01  3.300794726037E+01
  3.125329856943E+01  2.954564245743E+01  2.788610490205E+01  2.627572085678E+01
  2.471542877050E+01  2.320606534600E+01  2.174836058327E+01  2.034293315505E+01
  1.899028616205E+01  1.769080331617E+01  1.644474559930E+01  1.525224844495E+01
  1.411331948844E+01  1.302783692956E+01  1.199554854914E+01  1.101607141788E+01
  1.008889233163E+01  9.213369003261E+00  8.388732035477E+00  7.614087693327E+00
  6.888421488331E+00  6.210602578816E+00  5.579388983142E+00  4.993433593904E+00
  4.451290972201E+00  3.951424891586E+00  3.492216591572E+00  3.071973690633E+00
  2.688939698659E+00  2.341304058964E+00  2.027212640379E+00  1.744778590846E+00
  1.492093455501E+00  1.267238454675E+00  1.068295810711E+00  8.933600073348E-01
  7.405488615246E-01  6.080142858150E-01  4.939526187055E-01  3.966144026454E-01
  3.143134929348E-01  2.454353869712E-01  1.884446715836E-01  1.418914967500E-01
  1.044169967092E-01  7.475759424613E-02  5.174814056142E-02  3.432386139079E-02
  2.152109960292E-02  1.247686501066E-02  6.427223147107E-03  2.704575810692E-03
  7.339067535663E-04  2.808542904640E-05  1.823396694042E-04  8.680239799454E-04
  1.825823279034E-03  2.858541899828E-03  3.823634077166E-03  4.625634638296E-03
  5.208646972106E-03  5.549039467038E-03  5.648491522334E-03  5.527516141363E-03
  5.219568357211E-03  4.765827822506E-03  4.210720468048E-03  3.598218979801E-03
  2.968935849727E-03  2.357996886662E-03  1.793658329194E-03  1.296608075590E-03
  8.798719719555E-04  5.492304082753E-04  3.040393366194E-04  1.383437203709E-04
  4.217058425970E-05  2.893234874853E-06  6.567555936657E-06  3.915497401994E-05
  8.756390756143E-05  1.404612094094E-04  1.888260869587E-04  2.262399426798E-04
  2.489252250711E-04  2.555635026288E-04  2.469365301272E-04  2.254432794044E-04
  1.945502881947E-04  1.582321381534E-04  1.204536885248E-04  8.473651652146E-05
  5.383982470319E-05  2.957209030418E-05  1.273531295020E-05  3.190243690902E-06
  1.971298397846E-08  1.759140033477E-06  6.659173615570E-06  1.294543403091E-05
  1.904428982067E-05  2.375086617256E-05  2.632503128697E-05  2.651167792230E-05
  2.449184668179E-05  2.077983432555E-05  1.608734372976E-05  1.117829368256E-05
  6.736925003505E-06  3.267630081109E-06  1.038275673823E-06  7.081374981043E-08
  0.000000000000E+00  0.000000000000E+00  0.000000000000E+00  0.000000000000E+00
  0.000000000000E+00  0.000000000000E+00  0.000000000000E+00  0.000000000000E+00
  0.000000000000E+00  0.000000000000E+00  0.000000000000E+00  0.000000000000E+00
  0.000000000000E+00  0.000000000000E+00  0.000000000000E+00  0.000000000000E+00
  0.000000000000E+00  0.000000000000E+00  0.000000000000E+00  0.000000000000E+00
  0.000000000000E+00  0.000000000000E+00  0.000000000000E+00  0.000000000000E+00
  0.000000000000E+00  0.000000000000E+00  0.000000000000E+00  0.000000000000E+00
  0.000000000000E+00  0.000000000000E+00  0.000000000000E+00  0.000000000000E+00
  0.000000000000E+00  0.000000000000E+00  0.000000000000E+00  0.000000000000E+00
  0.000000000000E+00  0.000000000000E+00  0.000000000000E+00  0.000000000000E+00
  0.000000000000E+00  0.000000000000E+00  0.000000000000E+00  0.000000000000E+00
  0.000000000000E+00  0.000000000000E+00  0.000000000000E+00  0.000000000000E+00
  0.000000000000E+00  0.000000000000E+00  0.000000000000E+00  0.000000000000E+00
  0.000000000000E+00  0.000000000000E+00  0.000000000000E+00  0.000000000000E+00
  0.000000000000E+00  0.000000000000E+00  0.000000000000E+00  0.000000000000E+00
  0.000000000000E+00  0.000000000000E+00  0.000000000000E+00  0.000000000000E+00
  0.000000000000E+00  0.000000000000E+00  0.000000000000E+00  0.000000000000E+00
  0.000000000000E+00  0.000000000000E+00  0.000000000000E+00  0.000000000000E+00
  0.000000000000E+00  0.000000000000E+00  0.000000000000E+00  0.000000000000E+00
  0.000000000000E+00  0.000000000000E+00  0.000000000000E+00  0.000000000000E+00
  0.000000000000E+00  0.000000000000E+00  0.000000000000E+00  0.000000000000E+00
  0.000000000000E+00  0.000000000000E+00
</data>
</radfunc>
</pseudocore-charge>
<semilocal-potentials set="lj">
<slps n="3" l="s" j="0.5" rc="1.20310174358" eref="-3.75257606608">
<radfunc>
<data npts="290">
 -1.913945773969E+01 -1.914074524283E+01 -1.914459279552E+01 -1.915100787779E+01
 -1.915991883588E+01 -1.917162129345E+01 -1.918651207188E+01 -1.920353051887E+01
 -1.922461789260E+01 -1.924735602553E+01 -1.927290986297E+01 -1.930059406088E+01
 -1.933392570115E+01 -1.936858999106E+01 -1.940306902095E+01 -1.944259913405E+01
 -1.948787551191E+01 -1.953055276466E+01 -1.957825235541E+01 -1.963151116451E+01
 -1.969090903584E+01 -1.974326419635E+01 -1.980028308784E+01 -1.986231837133E+01
 -1.992973626975E+01 -2.000291404694E+01 -2.008223662163E+01 -2.014599460881E+01
 -2.021359061953E+01 -2.028518551085E+01 -2.036093591971E+01 -2.044099206994E+01
 -2.052549524597E+01 -2.061457490357E+01 -2.070834538783E+01 -2.080690222985E+01
 -2.091031799495E+01 -2.101863765836E+01 -2.109358272573E+01 -2.117070796019E+01
 -2.124999941884E+01 -2.133143395610E+01 -2.141497833562E+01 -2.150058829752E+01
 -2.158820758249E+01 -2.167776691400E+01 -2.176918294137E+01 -2.186235714633E+01
 -2.195717471682E+01 -2.205350339249E+01 -2.215119228705E+01 -2.225007069358E+01
 -2.234994687988E+01 -2.245060688194E+01 -2.255181330452E+01 -2.265330413919E+01
 -2.275479161116E+01 -2.285596106752E+01 -2.295646992085E+01 -2.305594666337E+01
 -2.315398996826E+01 -2.325016789626E+01 -2.334401722692E+01 -2.343504293548E+01
 -2.352271783793E+01 -2.360648242804E+01 -2.368574493185E+01 -2.372349421684E+01
 -2.375988160625E+01 -2.379482423060E+01 -2.382823730994E+01 -2.386003418868E+01
 -2.389012637577E+01 -2.391842359061E+01 -2.394483381485E+01 -2.396926335032E+01
 -2.399161688341E+01 -2.401179755604E+01 -2.402970704362E+01 -2.404524564005E+01
 -2.405831235015E+01 -2.406880498970E+01 -2.407662029331E+01 -2.408165403036E+01
 -2.408380112924E+01 -2.408295581005E+01 -2.407901172599E+01 -2.407186211366E+01
 -2.406139995240E+01 -2.404751813278E+01 -2.403010963455E+01 -2.400906771402E+01
 -2.398428610110E+01 -2.395565920610E+01 -2.392308233629E+01 -2.388645192248E+01
 -2.384566575551E+01 -2.380062323292E+01 -2.375122561562E+01 -2.369737629493E+01
 -2.363898106974E+01 -2.357594843411E+01 -2.350818987527E+01 -2.343562018222E+01
 -2.335815776495E+01 -2.327572498465E+01 -2.318824849503E+01 -2.309565959502E+01
 -2.299789459345E+01 -2.289489518603E+01 -2.278660884523E+01 -2.267298922408E+01
 -2.255399657450E+01 -2.242959818151E+01 -2.229976881464E+01 -2.216449119807E+01
 -2.202375650153E+01 -2.187756485409E+01 -2.172592588349E+01 -2.156885928412E+01
 -2.140639541698E+01 -2.123857594581E+01 -2.106545451381E+01 -2.088709746632E+01
 -2.070358462522E+01 -2.051501012185E+01 -2.032148329582E+01 -2.012312966805E+01
 -1.992009199749E+01 -1.971253143151E+01 -1.950062876143E+01 -1.928458579538E+01
 -1.906462686169E+01 -1.884100045701E+01 -1.861398105387E+01 -1.838387108312E+01
 -1.815100310656E+01 -1.791574219466E+01 -1.767848852306E+01 -1.743968019920E+01
 -1.719979632691E+01 -1.695936031131E+01 -1.671894339895E+01 -1.647916843786E+01
 -1.624071382884E+01 -1.600431762225E+01 -1.577078169345E+01 -1.554097590429E+01
 -1.531584212830E+01 -1.509639798330E+01 -1.488374007822E+01 -1.467904655540E+01
 -1.448357851254E+01 -1.429868007766E+01 -1.412577969921E+01 -1.396039222623E+01