<?xml version="1.0" encoding="UTF-8" ?>
<psml version="1.1" energy_unit="hartree" length_unit="bohr"
 uuid="b3e94eb0-539e-11e8-767a-08877edf9f98"
 xmlns="http://esl.cecam.org/PSML/ns/1.1">
<provenance creator="ONCVPSP-3.3.0+psml-3.3.0-73 (fully-relativistic)"
 date="2018-05-09">
<annotation action="semilocal-pseudopotential-generation"
 action-cont="projectors-generation" />
<input-file name="oncvpsp-input">
<![CDATA[# atsym z nc nv iexc psfile
Co 27 3 4 -116133 upf
# n l f
1 0 2.0
2 0 2.0
2 1 6.0
3 0 2.0
3 1 6.0
3 2 7.0
4 0 2.0
# lmax
2
# l rc ep ncon nbas qcut
0 1.25 0.0 4 7 9.3
1 1.32 0.0 4 7 9.7
2 1.65 0.0 4 7  9.5
# lloc lpopt rc5 dvloc0
4 5 1.2 0.0
# l nproj debl
0 2 0.8
1 2 0.8
2 2 0.8
# icmod fcfact
3 6 1.8
# epsh1 epsh2 depsh
-12.0 12.0 0.02
# rlmax drl
6.0 0.01
 0
]]>
</input-file>
</provenance>
<pseudo-atom-spec atomic-label="Co" atomic-number="27" z-pseudo="17"
 flavor="Hamann&apos;s oncvpsp" relativity="dirac" spin-dft="no"
 core-corrections="yes">
<annotation pseudo-energy="-142.071750162" />
<exchange-correlation>
<annotation oncvpsp-xc-code="-116133" oncvpsp-xc-type="libxc-interface" />
<libxc-info number-of-functionals="2">
<functional name="Perdew, Burke &amp; Ernzerhof SOL (GGA)" type="exchange"
 id="116" />
<functional name="Perdew, Burke &amp; Ernzerhof SOL (GGA)" type="correlation"
 id="133" />
</libxc-info>
</exchange-correlation>
<valence-configuration total-valence-charge="17">
<shell n="3" l="s" occupation="2" />
<shell n="3" l="p" occupation="6" />
<shell n="3" l="d" occupation="7" />
<shell n="4" l="s" occupation="2" />
</valence-configuration>
</pseudo-atom-spec>
<grid npts="457">
<annotation type="sampled from oncvpsp log grid"
 recipe="r(i:1..N) = r1*exp(a*(i-1)) + r=0; resampled"
 recipe-cont="r1: scale; a: step" scale="0.185185185185E-04"
 step="0.119285708653E-01" delta="0.500000000000E-02" rmax="44.1384555144" />
<grid-data>
  0.000000000000E+00  5.040192420950E-03  1.006738882075E-02  1.510268858140E-02
  2.010881910914E-02  2.522413632811E-02  3.052843244760E-02  3.564931321503E-02
  4.113555087463E-02  4.634708694971E-02  5.159968556889E-02  5.676637413542E-02
  6.245040443473E-02  6.788891108236E-02  7.292592018673E-02  7.833664953955E-02
  8.414882726703E-02  8.932039405154E-02  9.480979180144E-02  1.006365535764E-01
  1.068214128868E-01  1.120418749708E-01  1.175174659061E-01  1.232606540777E-01
  1.292845172121E-01  1.356027721566E-01  1.422298061135E-01  1.474117681829E-01
  1.527825284489E-01  1.583489655335E-01  1.641182086729E-01  1.700976468475E-01
  1.762949382462E-01  1.827180200740E-01  1.893751187181E-01  1.962747602834E-01
  2.034257815129E-01  2.108373411047E-01  2.159277978683E-01  2.211411586201E-01
  2.264803907538E-01  2.319485333081E-01  2.375486986963E-01  2.432840744777E-01
  2.491579251718E-01  2.551735941172E-01  2.613345053736E-01  2.676441656713E-01
  2.741061664073E-01  2.807241856890E-01  2.875019904283E-01  2.944434384852E-01
  3.015524808640E-01  3.088331639619E-01  3.162896318726E-01  3.239261287446E-01
  3.317470011970E-01  3.397567007939E-01  3.479597865779E-01  3.563609276650E-01
  3.649649059025E-01  3.737766185906E-01  3.828010812699E-01  3.920434305761E-01
  4.015089271639E-01  4.112029587013E-01  4.211310429362E-01  4.261846154515E-01
  4.312988308369E-01  4.364744168069E-01  4.417121098086E-01  4.470126551263E-01
  4.523768069878E-01  4.578053286717E-01  4.632989926157E-01  4.688585805271E-01
  4.744848834935E-01  4.801787020954E-01  4.859408465205E-01  4.917721366788E-01
  4.976734023189E-01  5.036454831467E-01  5.096892289445E-01  5.158054996918E-01
  5.219951656881E-01  5.282591076764E-01  5.345982169685E-01  5.410133955721E-01
  5.475055563190E-01  5.540756229948E-01  5.607245304708E-01  5.674532248364E-01
  5.742626635345E-01  5.811538154969E-01  5.881276612828E-01  5.951851932182E-01
  6.023274155368E-01  6.095553445233E-01  6.168700086576E-01  6.242724487615E-01
  6.317637181466E-01  6.393448827644E-01  6.470170213575E-01  6.547812256138E-01
  6.626386003212E-01  6.705902635250E-01  6.786373466873E-01  6.867809948476E-01
  6.950223667858E-01  7.033626351872E-01  7.118029868094E-01  7.203446226511E-01
  7.289887581230E-01  7.377366232204E-01  7.465894626991E-01  7.555485362515E-01
  7.646151186865E-01  7.737905001107E-01  7.830759861121E-01  7.924728979454E-01
  8.019825727207E-01  8.116063635934E-01  8.213456399565E-01  8.312017876360E-01
  8.411762090876E-01  8.512703235967E-01  8.614855674798E-01  8.718233942896E-01
  8.822852750211E-01  8.928726983213E-01  9.035871707012E-01  9.144302167496E-01
  9.254033793506E-01  9.365082199028E-01  9.477463185416E-01  9.591192743641E-01
  9.706287056565E-01  9.822762501244E-01  9.940635651259E-01  1.005992327907E+00
  1.018064235842E+00  1.030281006672E+00  1.042644378752E+00  1.055156111297E+00
  1.067817984633E+00  1.080631800449E+00  1.093599382054E+00  1.106722574639E+00
  1.120003245534E+00  1.133443284481E+00  1.147044603895E+00  1.160809139141E+00
  1.174738848811E+00  1.188835714997E+00  1.203101743577E+00  1.217538964500E+00
  1.232149432074E+00  1.246935225258E+00  1.261898447962E+00  1.277041229337E+00
  1.292365724089E+00  1.307874112778E+00  1.323568602132E+00  1.339451425357E+00
  1.355524842461E+00  1.371791140571E+00  1.388252634258E+00  1.404911665869E+00
  1.421770605859E+00  1.438831853130E+00  1.456097835367E+00  1.473571009392E+00
  1.491253861504E+00  1.509148907842E+00  1.527258694736E+00  1.545585799073E+00
  1.564132828662E+00  1.582902422606E+00  1.601897251677E+00  1.621120018697E+00
  1.640573458922E+00  1.660260340429E+00  1.680183464514E+00  1.700345666088E+00
  1.720749814081E+00  1.741398811850E+00  1.762295597592E+00  1.783443144764E+00
  1.804844462501E+00  1.826502596051E+00  1.848420627203E+00  1.870601674730E+00
  1.893048894827E+00  1.915765481564E+00  1.938754667343E+00  1.962019723351E+00
  1.985563960032E+00  2.009390727552E+00  2.033503416283E+00  2.057905457278E+00
  2.082600322765E+00  2.107591526639E+00  2.132882624958E+00  2.158477216458E+00
  2.184378943055E+00  2.210591490372E+00  2.237118588256E+00  2.263964011315E+00
  2.291131579451E+00  2.318625158405E+00  2.346448660305E+00  2.374606044229E+00
  2.403101316760E+00  2.431938532561E+00  2.461121794952E+00  2.490655256491E+00
  2.520543119569E+00  2.550789637004E+00  2.581399112648E+00  2.612375902000E+00
  2.643724412824E+00  2.675449105778E+00  2.707554495047E+00  2.740045148987E+00
  2.772925690775E+00  2.806200799065E+00  2.839875208653E+00  2.873953711157E+00
  2.908441155691E+00  2.943342449559E+00  2.978662558954E+00  3.014406509662E+00
  3.050579387777E+00  3.087186340431E+00  3.124232576516E+00  3.161723367434E+00
  3.199664047843E+00  3.238060016417E+00  3.276916736614E+00  3.316239737454E+00
  3.356034614303E+00  3.396307029675E+00  3.437062714031E+00  3.478307466599E+00
  3.520047156199E+00  3.562287722073E+00  3.605035174738E+00  3.648295596835E+00
  3.692075143997E+00  3.736380045725E+00  3.781216606273E+00  3.826591205549E+00
  3.872510300015E+00  3.918980423615E+00  3.966008188699E+00  4.013600286963E+00
  4.061763490407E+00  4.110504652292E+00  4.159830708119E+00  4.209748676617E+00
  4.260265660736E+00  4.311388848665E+00  4.363125514849E+00  4.415483021027E+00
  4.468468817279E+00  4.522090443087E+00  4.576355528404E+00  4.631271794745E+00
  4.686847056281E+00  4.743089220957E+00  4.800006291608E+00  4.857606367108E+00
  4.915897643513E+00  4.974888415235E+00  5.034587076218E+00  5.095002121133E+00
  5.156142146586E+00  5.218015852345E+00  5.280632042573E+00  5.343999627084E+00
  5.408127622609E+00  5.473025154080E+00  5.538701455929E+00  5.605165873401E+00
  5.672427863881E+00  5.740496998248E+00  5.809382962227E+00  5.879095557774E+00
  5.949644704467E+00  6.021040440921E+00  6.093292926212E+00  6.166412441326E+00
  6.240409390622E+00  6.315294303310E+00  6.391077834949E+00  6.467770768969E+00
  6.545384018196E+00  6.623928626415E+00  6.703415769932E+00  6.783856759171E+00
  6.865263040281E+00  6.947646196764E+00  7.031017951125E+00  7.115390166539E+00
  7.200774848537E+00  7.287184146720E+00  7.374630356480E+00  7.463125920758E+00
  7.552683431807E+00  7.643315632989E+00  7.735035420585E+00  7.827855845632E+00
  7.921790115779E+00  8.016851597169E+00  8.113053816335E+00  8.210410462131E+00
  8.308935387676E+00  8.408642612329E+00  8.509546323676E+00  8.611660879561E+00
  8.715000810115E+00  8.819580819837E+00  8.925415789675E+00  9.032520779151E+00
  9.140911028501E+00  9.250601960843E+00  9.361609184373E+00  9.473948494585E+00
  9.587635876520E+00  9.702687507039E+00  9.819119757123E+00  9.936949194208E+00
  1.005619258454E+01  1.017686689555E+01  1.029898929830E+01  1.042257716988E+01
  1.054764809592E+01  1.067421987307E+01  1.080231051155E+01  1.093193823768E+01
  1.106312149654E+01  1.119587895450E+01  1.133022950195E+01  1.146619225597E+01
  1.160378656304E+01  1.174303200180E+01  1.188394838582E+01  1.202655576645E+01
  1.217087443565E+01  1.231692492888E+01  1.246472802802E+01  1.261430476436E+01
  1.276567642153E+01  1.291886453859E+01  1.307389091305E+01  1.323077760401E+01
  1.338954693526E+01  1.355022149848E+01  1.371282415646E+01  1.387737804634E+01
  1.404390658290E+01  1.421243346189E+01  1.438298266343E+01  1.455557845540E+01
  1.473024539686E+01  1.490700834162E+01  1.508589244172E+01  1.526692315102E+01
  1.545012622884E+01  1.563552774358E+01  1.582315407650E+01  1.601303192542E+01
  1.620518830853E+01  1.639965056823E+01  1.659644637505E+01  1.679560373155E+01
  1.699715097633E+01  1.720111678804E+01  1.740753018950E+01  1.761642055177E+01
  1.782781759840E+01  1.804175140958E+01  1.825825242649E+01  1.847735145561E+01
  1.869907967308E+01  1.892346862915E+01  1.915055025270E+01  1.938035685574E+01
  1.961292113800E+01  1.984827619166E+01  2.008645550596E+01  2.032749297203E+01
  2.057142288770E+01  2.081827996235E+01  2.106809932190E+01  2.132091651376E+01
  2.157676751193E+01  2.183568872207E+01  2.209771698673E+01  2.236288959057E+01
  2.263124426566E+01  2.290281919685E+01  2.317765302721E+01  2.345578486354E+01
  2.373725428190E+01  2.402210133328E+01  2.431036654928E+01  2.460209094787E+01
  2.489731603925E+01  2.519608383172E+01  2.549843683770E+01  2.580441807975E+01
  2.611407109671E+01  2.642743994987E+01  2.674456922927E+01  2.706550406002E+01
  2.739029010874E+01  2.771897359004E+01  2.805160127312E+01  2.838822048840E+01
  2.872887913426E+01  2.907362568387E+01  2.942250919208E+01  2.977557930239E+01
  3.013288625401E+01  3.049448088906E+01  3.086041465973E+01  3.123073963565E+01
  3.160550851128E+01  3.198477461341E+01  3.236859190877E+01  3.275701501168E+01
  3.315009919182E+01  3.354790038212E+01  3.395047518670E+01  3.435788088895E+01
  3.477017545961E+01  3.518741756513E+01  3.560966657591E+01  3.603698257482E+01
  3.646942636572E+01  3.690705948211E+01  3.734994419589E+01  3.779814352624E+01
  3.825172124856E+01  3.871074190354E+01  3.917527080638E+01  3.964537405606E+01
  4.012111854473E+01  4.060257196727E+01  4.108980283088E+01  4.158288046485E+01
  4.208187503042E+01  4.258685753079E+01  4.309789982116E+01  4.361507461901E+01
  4.413845551444E+01
</grid-data>
</grid>
<valence-charge total-charge="17" is-unscreening-charge="yes"
 rescaled-to-z-pseudo="no">
<radfunc>
<data npts="457">
  1.239142653628E+01  1.239914462954E+01  1.242221208713E+01  1.246068161194E+01
  1.251413645824E+01  1.258436908081E+01  1.267378936920E+01  1.277605901254E+01
  1.290288762357E+01  1.303977789981E+01  1.319378473109E+01  1.336082818065E+01
  1.356222040247E+01  1.377198098716E+01  1.398094089390E+01  1.422090645461E+01
  1.449627165564E+01  1.475633559590E+01  1.504758659230E+01  1.537350910796E+01
  1.573790665751E+01  1.605989193452E+01  1.641140659258E+01  1.679485166764E+01
  1.721275649268E+01  1.766776953386E+01  1.816264419618E+01  1.856166413028E+01
  1.898592106233E+01  1.943664422666E+01  1.991506198320E+01  2.042238922101E+01
  2.095981228424E+01  2.152847108909E+01  2.212943807286E+01  2.276369359184E+01
  2.343209736295E+01  2.413535552938E+01  2.462382123059E+01  2.512810802527E+01
  2.564826010509E+01  2.618426244232E+01  2.673603347381E+01  2.730341723432E+01
  2.788617492719E+01  2.848397592609E+01  2.909638820784E+01  2.972286822480E+01
  3.036275023476E+01  3.101523511834E+01  3.167937872751E+01  3.235407982539E+01
  3.303806769602E+01  3.372988952501E+01  3.442789767628E+01  3.513023701854E+01
  3.583483248640E+01  3.653937709602E+01  3.724132067341E+01  3.793785959539E+01
  3.862592788752E+01  3.930219007094E+01  3.996303619867E+01  4.060457957192E+01
  4.122265767615E+01  4.181283692347E+01  4.237042183035E+01  4.263545585334E+01
  4.289046929486E+01  4.313480886674E+01  4.336780866218E+01  4.358879114852E+01
  4.379706827749E+01  4.399194271809E+01  4.417270921699E+01  4.433865609098E+01
  4.448906685562E+01  4.462322199402E+01  4.474040086868E+01  4.483988377934E+01
  4.492095416842E+01  4.498290097527E+01  4.502502113944E+01  4.504662225196E+01
  4.504702535273E+01  4.502556787071E+01  4.498160670232E+01  4.491452142186E+01
  4.482371761631E+01  4.470863033500E+01  4.456872764288E+01  4.440351426426E+01
  4.421253530170E+01  4.399538001276E+01  4.375168562513E+01  4.348114116835E+01
  4.318349129823E+01  4.285854008760E+01  4.250615475514E+01  4.212626930142E+01
  4.171888801954E+01  4.128408884573E+01  4.082202651330E+01  4.033293547200E+01
  3.981713253342E+01  3.927501920201E+01  3.870708365087E+01  3.811390230091E+01
  3.749614096275E+01  3.685455550089E+01  3.618999198164E+01  3.550338626791E+01
  3.479576302663E+01  3.406823411829E+01  3.332199634152E+01  3.255832851114E+01
  3.177858785324E+01  3.098420570729E+01  3.017668253235E+01  2.935758222225E+01
  2.852852574264E+01  2.769118411220E+01  2.684727075910E+01  2.599853329382E+01
  2.514674474916E+01  2.429369434813E+01  2.344117787010E+01  2.259098769507E+01
  2.174490261451E+01  2.090467750552E+01  2.007203297183E+01  1.924864506109E+01
  1.843613517217E+01  1.763606026903E+01  1.684990351831E+01  1.607906546685E+01
  1.532485587205E+01  1.458848629237E+01  1.387106353771E+01  1.317358406920E+01
  1.249692942630E+01  1.184186274447E+01  1.120902641121E+01  1.059894089084E+01
  1.001200472957E+01  9.448495733470E+00  8.908573292080E+00  8.392281800815E+00
  7.899555116662E+00  7.430221963825E+00  6.984012189988E+00  6.560563760038E+00
  6.159430362828E+00  5.780089498313E+00  5.421950907425E+00  5.084365205576E+00
  4.766632582501E+00  4.468011435944E+00  4.187726815369E+00  3.924978820226E+00
  3.678951542898E+00  3.448821882822E+00  3.233765486767E+00  3.032962091800E+00
  2.845599774108E+00  2.670878820605E+00  2.508016308738E+00  2.356250140660E+00
  2.214842650302E+00  2.083083745263E+00  1.960293598534E+00  1.845824907321E+00
  1.739064736716E+00  1.639435964745E+00  1.546398343020E+00  1.459449183978E+00
  1.378123682268E+00  1.301994874500E+00  1.230673238977E+00  1.163805935528E+00
  1.101075685500E+00  1.042199293748E+00  9.869246177464E-01  9.350225632742E-01
  8.862765590607E-01  8.404822002141E-01  7.974467435968E-01  7.569886785708E-01
  7.189372905868E-01  6.831322204559E-01  6.494230218864E-01  6.176687196242E-01
  5.877373702945E-01  5.595056278165E-01  5.328583150466E-01  5.076880031013E-01
  4.838945996246E-01  4.613849470853E-01  4.400724320316E-01  4.198766060772E-01
  4.007228192609E-01  3.825418662900E-01  3.652696460691E-01  3.488468348041E-01
  3.332185728787E-01  3.183341656086E-01  3.041467978985E-01  2.906132627514E-01
  2.776937035122E-01  2.653513696682E-01  2.535523859706E-01  2.422655345966E-01
  2.314620500270E-01  2.211154262789E-01  2.112012361035E-01  2.016969617313E-01
  1.925818367313E-01  1.838366985329E-01  1.754438511507E-01  1.673869376460E-01
  1.596508218563E-01  1.522214789250E-01  1.450858941688E-01  1.382319698254E-01
  1.316484392327E-01  1.253247880035E-01  1.192511817685E-01  1.134184000768E-01
  1.078177760556E-01  1.024411414452E-01  9.728077664339E-02  9.232936540723E-02
  8.757995387565E-02  8.302591359485E-02  7.866090824231E-02  7.447886376213E-02
  7.047394164024E-02  6.664051506310E-02  6.297314771926E-02  5.946657501787E-02
  5.611568751313E-02  5.291551633802E-02  4.986122046469E-02  4.694807562300E-02
  4.417146472162E-02  4.152686962949E-02  3.900986418783E-02  3.661610832830E-02
  3.434134322368E-02  3.218138730875E-02  3.013213315050E-02  2.818954505731E-02
  2.634965736257E-02  2.460857331801E-02  2.296246453720E-02  2.140757093280E-02
  1.994020109397E-02  1.855673305147E-02  1.725361537843E-02  1.602736857498E-02
  1.487458668396E-02  1.379193908472E-02  1.277617241160E-02  1.182411254348E-02
  1.093266661183E-02  1.009882497601E-02  9.319663116833E-03  8.592343402838E-03
  7.914116687643E-03  7.282323701618E-03  6.694396206474E-03  6.147857887234E-03
  5.640324962101E-03  5.169506496876E-03  4.733204416596E-03  4.329313212819E-03
  3.955819350298E-03  3.610800381660E-03  3.292423782905E-03  2.998945526187E-03
  2.728708409269E-03  2.480140163346E-03  2.251751362587E-03  2.042133159805E-03
  1.849954873144E-03  1.673961448701E-03  1.512970823523E-03  1.365871212614E-03
  1.231618342450E-03  1.109232652091E-03  9.977964814051E-04  8.964512641849E-04
  8.043947421084E-04  7.208782136652E-04  6.452038302898E-04  5.767219501431E-04
  5.148285582393E-04  4.589627599704E-04  4.086043535650E-04  3.632714856295E-04
  3.225183926845E-04  2.859332305239E-04  2.531359922897E-04  2.237765153691E-04
  1.975325765738E-04  1.741080745406E-04  1.532312978870E-04  1.346532773514E-04
  1.181462199223E-04  1.035020228128E-04  9.053086503403E-05  7.905987426705E-05
  6.893186670681E-05  6.000415754158E-05  5.214743974006E-05  4.524472882793E-05
  3.919037134938E-05  3.388911472113E-05  2.925523619576E-05  2.521172865752E-05
  2.168954097710E-05  1.862687065338E-05  1.596850647118E-05  1.366521890571E-05
  1.167319600842E-05  9.953522516822E-06  8.471699943709E-06  7.197205419636E-06
  6.103087088351E-06  5.165593887249E-06  4.363837585091E-06  3.679484996656E-06
  3.096478348499E-06  2.600781831131E-06  2.180152440288E-06  1.823933282606E-06
  1.522867597286E-06  1.268931824261E-06  1.055186160479E-06  8.756410024476E-07
  7.251381444304E-07  5.992448394784E-07  4.941604584148E-07  4.066333112738E-07
  3.338874528167E-07  2.735584555164E-07  2.236369822312E-07  1.824193545781E-07
  1.484643667807E-07  1.205556629092E-07  9.766904627692E-08  7.894414575141E-08
  6.365992091279E-08  5.121354011912E-08  4.110221383261E-08  3.290761005738E-08
  2.628251956315E-08  2.093947586795E-08  1.664106889287E-08  1.319172196310E-08
  1.043072960196E-08  8.226378543062E-09  6.470996767233E-09  5.076795351466E-09
  3.972385689804E-09  3.099870397579E-09  2.412420121436E-09  1.872260719596E-09
  1.449006012622E-09  1.118280687132E-09  8.605861058274E-10  6.603688689087E-10
  5.052581057489E-10  3.854427632569E-10  2.931646978167E-10  2.221382408603E-10
  1.679424530981E-10  1.265774525872E-10  9.510325061470E-11  7.122980626045E-11
  5.317892790482E-11  3.957424206117E-11  2.935380649393E-11  2.170093253581E-11
  1.598960173408E-11  1.174154051019E-11  8.592575883923E-12  6.266354780906E-12
  4.553885495222E-12  3.297666546816E-12  2.379417346702E-12  1.710626797099E-12
  1.225298643480E-12  8.744031209800E-13  6.216490836020E-13  4.402742558225E-13
  3.106175404846E-13  2.182897779212E-13  1.528007036547E-13  1.065323196248E-13
  7.397428427893E-14  5.115670295477E-14  3.523104074430E-14  2.416173143196E-14
  1.650017393583E-14  1.121979311249E-14  7.596170910691E-15  5.120302036660E-15
  3.436090150978E-15  2.295506361938E-15  1.526560475793E-15  1.010525747859E-15
  6.658165951776E-16  4.366278390115E-16  2.849661151787E-16  1.850866658782E-16
  1.196277596837E-16  7.693753089984E-17  4.923434435306E-17  3.134697234788E-17
  1.985610875893E-17  1.251229680575E-17  7.843270876325E-18  4.890432548468E-18
  3.032909735191E-18  1.870707056061E-18  1.147513401285E-18  6.999816936985E-19
  4.245838164013E-19  2.560699283498E-19  1.535473433870E-19  9.153442299857E-20
  5.424434456680E-20  3.195372144019E-20  1.870915107765E-20  1.088731204752E-20
  6.296353113263E-21  3.618483928923E-21  2.066334867757E-21  0.000000000000E+00
  0.000000000000E+00  0.000000000000E+00  0.000000000000E+00  0.000000000000E+00
  0.000000000000E+00  0.000000000000E+00  0.000000000000E+00  0.000000000000E+00
  0.000000000000E+00  0.000000000000E+00  0.000000000000E+00  0.000000000000E+00
  0.000000000000E+00  0.000000000000E+00  0.000000000000E+00  0.000000000000E+00
  0.000000000000E+00
</data>
</radfunc>
</valence-charge>
<pseudocore-charge matching-radius="0.401508927164"
 number-of-continuous-derivatives="4">
<annotation model-charge-form="Teter function with specified parameters" />
<radfunc>
<data npts="290">
  2.667348581688E+02  2.666938734535E+02  2.665713769155E+02  2.663670791640E+02
  2.660831776191E+02  2.657101289895E+02  2.652350975381E+02  2.646917152100E+02
  2.640177092819E+02  2.632900609939E+02  2.624712121308E+02  2.615827840949E+02
  2.605112978266E+02  2.593948454014E+02  2.582821940549E+02  2.570038649356E+02
  2.555361695017E+02  2.541492337842E+02  2.525950288794E+02  2.508545804193E+02
  2.489070830891E+02  2.471848057080E+02  2.453029650362E+02  2.432481896309E+02
  2.410062833327E+02  2.385622400374E+02  2.359002770385E+02  2.337508922990E+02
  2.314624559905E+02  2.290275910610E+02  2.264387790587E+02  2.236884016564E+02
  2.207687909720E+02  2.176722897370E+02  2.143913224084E+02  2.109184783464E+02
  2.072466081816E+02  2.033689344625E+02  2.006663576450E+02  1.978677995830E+02
  1.949716979978E+02  1.919766593428E+02  1.888814823986E+02  1.856851833930E+02
  1.823870226262E+02  1.789865325567E+02  1.754835472800E+02  1.718782332981E+02
  1.681711214471E+02  1.643631398076E+02  1.604556473828E+02  1.564504682756E+02
  1.523499260465E+02  1.481568778749E+02  1.438747480819E+02  1.395075605080E+02
  1.350599691684E+02  1.305372865356E+02  1.259455087243E+02  1.212913367832E+02
  1.165821932236E+02  1.118262328513E+02  1.070323469080E+02  1.022101594821E+02
  9.737001511600E+01  9.252295652411E+01  8.768069134782E+01  8.526518587239E+01
  8.285554691340E+01  8.045340266702E+01  7.806041203653E+01  7.567826204770E+01
  7.330866503345E+01  7.095335558427E+01  6.861408726255E+01  6.629262907963E+01
  6.399076173600E+01  6.171027362638E+01  5.945295661290E+01  5.722060157139E+01
  5.501499371747E+01  5.283790772101E+01  5.069110261968E+01  4.857631654429E+01
  4.649526127088E+01  4.444961661685E+01  4.244102470087E+01  4.047108408850E+01
  3.854134384834E+01  3.665329754559E+01  3.480837720290E+01  3.300794726037E+01
  3.125329856943E+01  2.954564245743E+01  2.788610490205E+01  2.627572085678E+01
  2.471542877050E+01  2.320606534600E+01  2.174836058327E+01  2.034293315505E+01
  1.899028616205E+01  1.769080331617E+01  1.644474559930E+01  1.525224844495E+01
  1.411331948844E+01  1.302783692956E+01  1.199554854914E+01  1.101607141788E+01
  1.008889233163E+01  9.213369003261E+00  8.388732035477E+00  7.614087693327E+00
  6.888421488331E+00  6.210602578816E+00  5.579388983142E+00  4.993433593904E+00
  4.451290972201E+00  3.951424891586E+00  3.492216591572E+00  3.071973690633E+00
  2.688939698659E+00  2.341304058964E+00  2.027212640379E+00  1.744778590846E+00
  1.492093455501E+00  1.267238454675E+00  1.068295810711E+00  8.933600073348E-01
  7.405488615246E-01  6.080142858150E-01  4.939526187055E-01  3.966144026454E-01
  3.143134929348E-01  2.454353869712E-01  1.884446715836E-01  1.418914967500E-01
  1.044169967092E-01  7.475759424613E-02  5.174814056142E-02  3.432386139079E-02
  2.152109960292E-02  1.247686501066E-02  6.427223147107E-03  2.704575810692E-03
  7.339067535663E-04  2.808542904640E-05  1.823396694042E-04  8.680239799454E-04
  1.825823279034E-03  2.858541899828E-03  3.823634077166E-03  4.625634638296E-03
  5.208646972106E-03  5.549039467038E-03  5.648491522334E-03  5.527516141363E-03
  5.219568357211E-03  4.765827822506E-03  4.210720468048E-03  3.598218979801E-03
  2.968935849727E-03  2.357996886662E-03  1.793658329194E-03  1.296608075590E-03
  8.798719719555E-04  5.492304082753E-04  3.040393366194E-04  1.383437203709E-04
  4.217058425970E-05  2.893234874853E-06  6.567555936657E-06  3.915497401994E-05
  8.756390756143E-05  1.404612094094E-04  1.888260869587E-04  2.262399426798E-04
  2.489252250711E-04  2.555635026288E-04  2.469365301272E-04  2.254432794044E-04
  1.945502881947E-04  1.582321381534E-04  1.204536885248E-04  8.473651652146E-05
  5.383982470319E-05  2.957209030418E-05  1.273531295020E-05  3.190243690902E-06
  1.971298397846E-08  1.759140033477E-06  6.659173615570E-06  1.294543403091E-05
  1.904428982067E-05  2.375086617256E-05  2.632503128697E-05  2.651167792230E-05
  2.449184668179E-05  2.077983432555E-05  1.608734372976E-05  1.117829368256E-05
  6.736925003505E-06  3.267630081109E-06  1.038275673823E-06  7.081374981043E-08
  0.000000000000E+00  0.000000000000E+00  0.000000000000E+00  0.000000000000E+00
  0.000000000000E+00  0.000000000000E+00  0.000000000000E+00  0.000000000000E+00
  0.000000000000E+00  0.000000000000E+00  0.000000000000E+00  0.000000000000E+00
  0.000000000000E+00  0.000000000000E+00  0.000000000000E+00  0.000000000000E+00
  0.000000000000E+00  0.000000000000E+00  0.000000000000E+00  0.000000000000E+00
  0.000000000000E+00  0.000000000000E+00  0.000000000000E+00  0.000000000000E+00
  0.000000000000E+00  0.000000000000E+00  0.000000000000E+00  0.000000000000E+00
  0.000000000000E+00  0.000000000000E+00  0.000000000000E+00  0.000000000000E+00
  0.000000000000E+00  0.000000000000E+00  0.000000000000E+00  0.000000000000E+00
  0.000000000000E+00  0.000000000000E+00  0.000000000000E+00  0.000000000000E+00
  0.000000000000E+00  0.000000000000E+00  0.000000000000E+00  0.000000000000E+00
  0.000000000000E+00  0.000000000000E+00  0.000000000000E+00  0.000000000000E+00
  0.000000000000E+00  0.000000000000E+00  0.000000000000E+00  0.000000000000E+00
  0.000000000000E+00  0.000000000000E+00  0.000000000000E+00  0.000000000000E+00
  0.000000000000E+00  0.000000000000E+00  0.000000000000E+00  0.000000000000E+00
  0.000000000000E+00  0.000000000000E+00  0.000000000000E+00  0.000000000000E+00
  0.000000000000E+00  0.000000000000E+00  0.000000000000E+00  0.000000000000E+00
  0.000000000000E+00  0.000000000000E+00  0.000000000000E+00  0.000000000000E+00
  0.000000000000E+00  0.000000000000E+00  0.000000000000E+00  0.000000000000E+00
  0.000000000000E+00  0.000000000000E+00  0.000000000000E+00  0.000000000000E+00
  0.000000000000E+00  0.000000000000E+00  0.000000000000E+00  0.000000000000E+00
  0.000000000000E+00  0.000000000000E+00
</data>
</radfunc>
</pseudocore-charge>
<semilocal-potentials set="lj">
<slps n="3" l="s" j="0.5" rc="1.26189844796" eref="-3.75257606608">
<radfunc>
<data npts="290">
 -2.167665194696E+01 -2.167721405775E+01 -2.167889394324E+01 -2.168169513972E+01
 -2.168558679982E+01 -2.169069867788E+01 -2.169720507362E+01 -2.170464358921E+01
 -2.171386419606E+01 -2.172381109003E+01 -2.173499525789E+01 -2.174711840656E+01
 -2.176172366829E+01 -2.177692331085E+01 -2.179205222717E+01 -2.180941031113E+01
 -2.182930836412E+01 -2.184808038983E+01 -2.186908004463E+01 -2.189255001498E+01
 -2.191875352172E+01 -2.194187449884E+01 -2.196708074157E+01 -2.199453459595E+01
 -2.202440549617E+01 -2.205686893546E+01 -2.209210502642E+01 -2.212046157577E+01
 -2.215055786734E+01 -2.218247052374E+01 -2.221627458876E+01 -2.225204247061E+01
 -2.228984270023E+01 -2.232973848206E+01 -2.237178601345E+01 -2.241603254720E+01
 -2.246251417063E+01 -2.251125327364E+01 -2.254500381614E+01 -2.257975765616E+01
 -2.261550739894E+01 -2.265224077060E+01 -2.268994007548E+01 -2.272858161476E+01
 -2.276813506493E+01 -2.280856281554E+01 -2.284981926525E+01 -2.289185007592E+01
 -2.293459138470E+01 -2.297796897445E+01 -2.302189740341E+01 -2.306627909548E+01
 -2.311100339315E+01 -2.315594557585E+01 -2.320096584733E+01 -2.324590829639E+01
 -2.329059983657E+01 -2.333484913125E+01 -2.337844551197E+01 -2.342115789904E+01
 -2.346273373502E+01 -2.350289794296E+01 -2.354135192338E+01 -2.357777260517E+01
 -2.361181156797E+01 -2.364309425511E+01 -2.367121929856E+01 -2.368396480910E+01
 -2.369575797898E+01 -2.370654088232E+01 -2.371625384645E+01 -2.372483545076E+01
 -2.373222252924E+01 -2.373835017681E+01 -2.374315175992E+01 -2.374655893142E+01
 -2.374850165014E+01 -2.374890820540E+01 -2.374770524670E+01 -2.374481781889E+01
 -2.374016940309E+01 -2.373368196363E+01 -2.372527600126E+01 -2.371487061296E+01
 -2.370238355856E+01 -2.368773133444E+01 -2.367082925455E+01 -2.365159153900E+01
 -2.362993141045E+01 -2.360576119841E+01 -2.357899245181E+01 -2.354953605982E+01
 -2.351730238110E+01 -2.348220138173E+01 -2.344414278168E+01 -2.340303621000E+01
 -2.335879136878E+01 -2.331131820572E+01 -2.326052709538E+01 -2.320632902910E+01
 -2.314863581324E+01 -2.308736027589E+01 -2.302241648178E+01 -2.295371995519E+01
 -2.288118791086E+01 -2.280473949264E+01 -2.272429601980E+01 -2.263978124092E+01
 -2.255112159543E+01 -2.245824648268E+01 -2.236108853889E+01 -2.225958392206E+01
 -2.215367260544E+01 -2.204329867999E+01 -2.192841066678E+01 -2.180896184011E+01
 -2.168491056290E+01 -2.155622063577E+01 -2.142286166172E+01 -2.128480942892E+01
 -2.114204631416E+01 -2.099456171041E+01 -2.084235248229E+01 -2.068542345396E+01
 -2.052378793473E+01 -2.035746828842E+01 -2.018649655356E+01 -2.001091512245E+01
 -1.983077748819E+01 -1.964614907030E+01 -1.945710813053E+01 -1.926374679200E+01
 -1.906617217655E+01 -1.886450767611E+01 -1.865889437593E+01 -1.844949264854E+01
 -1.823648393869E+01 -1.802007276044E+01 -1.780048892818E+01 -1.757799004330E+01
 -1.735286425767E+01 -1.712543333298E+01 -1.689605601233E+01 -1.666513171499E+01
 -1.643310455870E+01 -1.620046770368E+01 -1.596776799973E+01 -1.573561090053E+01
 -1.550466558865E+01 -1.527567022857E+01 -1.504943723529E+01 -1.482685841160E+01
 -1.460890977013E+01 -1.439665581816E+01 -1.419125304678E+01 -1.399395234164E+01