<?xml version="1.0" encoding="UTF-8" ?>
<psml version="1.1" energy_unit="hartree" length_unit="bohr"
 uuid="1767f890-53a1-11e8-4436-88ecdcffc303"
 xmlns="http://esl.cecam.org/PSML/ns/1.1">
<provenance creator="ONCVPSP-3.3.0+psml-3.3.0-73 (fully-relativistic)"
 date="2018-05-09">
<annotation action="semilocal-pseudopotential-generation"
 action-cont="projectors-generation" />
<input-file name="oncvpsp-input">
<![CDATA[# atsym z nc nv iexc psfile
Zr 40 6 4 -116133 upf
# n l f
1 0 2.0
2 0 2.0
2 1 6.0
3 0 2.0
3 1 6.0
3 2 10.0
4 0 2.0
4 1 6.0
4 2 2.0
5 0 2.0
# lmax
2
# l rc ep ncon nbas qcut
0 1.55 0.0 4 8 7.4
1 1.55 0.0 4 8 8.0
2 1.5 0.0 4 8 7.8
# lloc lpopt rc5 dvloc0
4 5 1.45 0.0
# l nproj debl
0 2 1.0
1 2 2.0
2 2 2.0
# icmod fcfact
3 5 1.35
# epsh1 epsh2 depsh
-12.0 12.0 0.02
# rlmax drl
6.0 0.01
 0
]]>
</input-file>
</provenance>
<pseudo-atom-spec atomic-label="Zr" atomic-number="40" z-pseudo="12"
 flavor="Hamann&apos;s oncvpsp" relativity="dirac" spin-dft="no"
 core-corrections="yes">
<annotation pseudo-energy="-47.1028201861" />
<exchange-correlation>
<annotation oncvpsp-xc-code="-116133" oncvpsp-xc-type="libxc-interface" />
<libxc-info number-of-functionals="2">
<functional name="Perdew, Burke &amp; Ernzerhof SOL (GGA)" type="exchange"
 id="116" />
<functional name="Perdew, Burke &amp; Ernzerhof SOL (GGA)" type="correlation"
 id="133" />
</libxc-info>
</exchange-correlation>
<valence-configuration total-valence-charge="12">
<shell n="4" l="s" occupation="2" />
<shell n="4" l="p" occupation="6" />
<shell n="4" l="d" occupation="2" />
<shell n="5" l="s" occupation="2" />
</valence-configuration>
</pseudo-atom-spec>
<grid npts="457">
<annotation type="sampled from oncvpsp log grid"
 recipe="r(i:1..N) = r1*exp(a*(i-1)) + r=0; resampled"
 recipe-cont="r1: scale; a: step" scale="0.125000000000E-04"
 step="0.119285708653E-01" delta="0.500000000000E-02" rmax="44.1649575951" />
<grid-data>
  0.000000000000E+00  5.043218706865E-03  1.007343358937E-02  1.511175669823E-02
  2.012089306008E-02  2.523928167219E-02  3.054676265355E-02  3.567071815465E-02
  4.067218371481E-02  4.582501498060E-02  5.101844624570E-02  5.612693518305E-02
  6.174693831073E-02  6.712418346252E-02  7.296970714298E-02  7.838368526344E-02
  8.419935280047E-02  8.937402475208E-02  9.486671850454E-02  1.006969788457E-01
  1.068855517351E-01  1.121091483444E-01  1.175880269923E-01  1.233346635500E-01
  1.293621435963E-01  1.356841922146E-01  1.423152052457E-01  1.475002787239E-01
  1.528742637588E-01  1.584440431028E-01  1.642167502724E-01  1.701997786849E-01
  1.764007911272E-01  1.828277295701E-01  1.894888253401E-01  1.963926096616E-01
  2.035479245832E-01  2.109639343024E-01  2.160574475322E-01  2.212739385454E-01
  2.266163765177E-01  2.320878023123E-01  2.376913302113E-01  2.434301496880E-01
  2.493075272220E-01  2.553268081593E-01  2.614914186155E-01  2.678048674265E-01
  2.742707481457E-01  2.808927410889E-01  2.876746154297E-01  2.946202313447E-01
  3.017335422103E-01  3.090185968534E-01  3.164795418558E-01  3.241206239144E-01
  3.319461922582E-01  3.399607011241E-01  3.481687122920E-01  3.565748976816E-01
  3.651840420112E-01  3.740010455215E-01  3.830309267646E-01  3.922788254604E-01
  4.017500054223E-01  4.114498575532E-01  4.213839029140E-01  4.264405097490E-01
  4.315577958659E-01  4.367364894163E-01  4.419773272893E-01  4.472810552168E-01
  4.526484278794E-01  4.580802090140E-01  4.635771715221E-01  4.691400975804E-01
  4.747697787514E-01  4.804670160964E-01  4.862326202895E-01  4.920674117330E-01
  4.979722206738E-01  5.039478873219E-01  5.099952619697E-01  5.161152051134E-01
  5.223085875747E-01  5.285762906256E-01  5.349192061131E-01  5.413382365865E-01
  5.478342954255E-01  5.544083069706E-01  5.610612066543E-01  5.677939411341E-01
  5.746074684278E-01  5.815027580489E-01  5.884807911455E-01  5.955425606392E-01
  6.026890713669E-01  6.099213402233E-01  6.172403963060E-01  6.246472810616E-01
  6.321430484344E-01  6.397287650156E-01  6.474055101958E-01  6.551743763181E-01
  6.630364688340E-01  6.709929064600E-01  6.790448213375E-01  6.871933591935E-01
  6.954396795039E-01  7.037849556579E-01  7.122303751258E-01  7.207771396273E-01
  7.294264653028E-01  7.381795828865E-01  7.470377378811E-01  7.560021907357E-01
  7.650742170245E-01  7.742551076288E-01  7.835461689203E-01  7.929487229474E-01
  8.024641076228E-01  8.120936769142E-01  8.218388010372E-01  8.317008666496E-01
  8.416812770494E-01  8.517814523740E-01  8.620028298025E-01  8.723468637602E-01
  8.828150261253E-01  8.934088064388E-01  9.041297121160E-01  9.149792686614E-01
  9.259590198854E-01  9.370705281240E-01  9.483153744615E-01  9.596951589550E-01
  9.712115008625E-01  9.828660388728E-01  9.946604313393E-01  1.006596356515E+00
  1.018675512794E+00  1.030899618947E+00  1.043270414374E+00  1.055789659347E+00
  1.068459135259E+00  1.081280644882E+00  1.094256012621E+00  1.107387084772E+00
  1.120675729790E+00  1.134123838547E+00  1.147733324610E+00  1.161506124505E+00
  1.175444197999E+00  1.189549528375E+00  1.203824122715E+00  1.218270012188E+00
  1.232889252334E+00  1.247683923362E+00  1.262656130443E+00  1.277808004008E+00
  1.293141700056E+00  1.308659400457E+00  1.324363313262E+00  1.340255673021E+00
  1.356338741098E+00  1.372614805991E+00  1.389086183663E+00  1.405755217867E+00
  1.422624280481E+00  1.439695771847E+00  1.456972121109E+00  1.474455786562E+00
  1.492149256001E+00  1.510055047073E+00  1.528175707638E+00  1.546513816130E+00
  1.565071981923E+00  1.583852845706E+00  1.602859079855E+00  1.622093388813E+00
  1.641558509479E+00  1.661257211592E+00  1.681192298131E+00  1.701366605709E+00
  1.721783004978E+00  1.742444401037E+00  1.763353733850E+00  1.784513978656E+00
  1.805928146400E+00  1.827599284157E+00  1.849530475566E+00  1.871724841273E+00
  1.894185539369E+00  1.916915765841E+00  1.939918755031E+00  1.963197780091E+00
  1.986756153453E+00  2.010597227294E+00  2.034724394022E+00  2.059141086750E+00
  2.083850779791E+00  2.108856989148E+00  2.134163273018E+00  2.159773232294E+00
  2.185690511082E+00  2.211918797215E+00  2.238461822781E+00  2.265323364655E+00
  2.292507245031E+00  2.320017331971E+00  2.347857539955E+00  2.376031830434E+00
  2.404544212399E+00  2.433398742948E+00  2.462599527863E+00  2.492150722198E+00
  2.522056530864E+00  2.552321209235E+00  2.582949063745E+00  2.613944452510E+00
  2.645311785940E+00  2.677055527372E+00  2.709180193700E+00  2.741690356025E+00
  2.774590640297E+00  2.807885727980E+00  2.841580356716E+00  2.875679320997E+00
  2.910187472849E+00  2.945109722523E+00  2.980451039193E+00  3.016216451664E+00
  3.052411049083E+00  3.089039981672E+00  3.126108461453E+00  3.163621762990E+00
  3.201585224146E+00  3.240004246836E+00  3.278884297798E+00  3.318230909371E+00
  3.358049680284E+00  3.398346276447E+00  3.439126431764E+00  3.480395948946E+00
  3.522160700333E+00  3.564426628737E+00  3.607199748282E+00  3.650486145261E+00
  3.694291979004E+00  3.738623482752E+00  3.783486964545E+00  3.828888808120E+00
  3.874835473817E+00  3.921333499503E+00  3.968389501497E+00  4.016010175515E+00
  4.064202297621E+00  4.112972725193E+00  4.162328397895E+00  4.212276338670E+00
  4.262823654734E+00  4.313977538591E+00  4.365745269054E+00  4.418134212282E+00
  4.471151822830E+00  4.524805644704E+00  4.579103312440E+00  4.634052552190E+00
  4.689661182816E+00  4.745937117010E+00  4.802888362414E+00  4.860523022763E+00
  4.918849299036E+00  4.977875490624E+00  5.037609996512E+00  5.098061316470E+00
  5.159238052268E+00  5.221148908895E+00  5.283802695802E+00  5.347208328151E+00
  5.411374828089E+00  5.476311326026E+00  5.542027061938E+00  5.608531386682E+00
  5.675833763322E+00  5.743943768482E+00  5.812871093703E+00  5.882625546828E+00
  5.953217053390E+00  6.024655658030E+00  6.096951525927E+00  6.170114944238E+00
  6.244156323569E+00  6.319086199452E+00  6.394915233845E+00  6.471654216651E+00
  6.549314067251E+00  6.627905836058E+00  6.707440706091E+00  6.787929994564E+00
  6.869385154499E+00  6.951817776353E+00  7.035239589669E+00  7.119662464745E+00
  7.205098414322E+00  7.291559595294E+00  7.379058310437E+00  7.467607010162E+00
  7.557218294284E+00  7.647904913816E+00  7.739679772782E+00  7.832555930055E+00
  7.926546601216E+00  8.021665160430E+00  8.117925142355E+00  8.215340244064E+00
  8.313924326992E+00  8.413691418916E+00  8.514655715943E+00  8.616831584535E+00
  8.720233563549E+00  8.824876366312E+00  8.930774882707E+00  9.037944181300E+00
  9.146399511475E+00  9.256156305613E+00  9.367230181280E+00  9.479636943456E+00
  9.593392586777E+00  9.708513297819E+00  9.825015457392E+00  9.942915642881E+00
  1.006223063060E+01  1.018297739816E+01  1.030517312694E+01  1.042883520446E+01
  1.055398122692E+01  1.068062900164E+01  1.080879654966E+01  1.093850210826E+01
  1.106976413356E+01  1.120260130316E+01  1.133703251880E+01  1.147307690902E+01
  1.161075383193E+01  1.175008287791E+01  1.189108387245E+01  1.203377687892E+01
  1.217818220146E+01  1.232432038788E+01  1.247221223254E+01  1.262187877933E+01
  1.277334132468E+01  1.292662142057E+01  1.308174087762E+01  1.323872176815E+01
  1.339758642937E+01  1.355835746652E+01  1.372105775612E+01  1.388571044920E+01
  1.405233897459E+01  1.422096704228E+01  1.439161864679E+01  1.456431807055E+01
  1.473908988740E+01  1.491595896604E+01  1.509495047364E+01  1.527608987932E+01
  1.545940295787E+01  1.564491579337E+01  1.583265478289E+01  1.602264664028E+01
  1.621491839997E+01  1.640949742077E+01  1.660641138981E+01  1.680568832649E+01
  1.700735658641E+01  1.721144486545E+01  1.741798220383E+01  1.762699799028E+01
  1.783852196616E+01  1.805258422976E+01  1.826921524051E+01  1.848844582340E+01
  1.871030717328E+01  1.893483085936E+01  1.916204882967E+01  1.939199341563E+01
  1.962469733662E+01  1.986019370465E+01  2.009851602911E+01  2.033969822146E+01
  2.058377460012E+01  2.083077989532E+01  2.108074925406E+01  2.133371824511E+01
  2.158972286405E+01  2.184879953842E+01  2.211098513288E+01  2.237631695448E+01
  2.264483275793E+01  2.291657075103E+01  2.319156960004E+01  2.346986843524E+01
  2.375150685646E+01  2.403652493874E+01  2.432496323800E+01  2.461686279686E+01
  2.491226515042E+01  2.521121233223E+01  2.551374688021E+01  2.581991184278E+01
  2.612975078489E+01  2.644330779431E+01  2.676062748784E+01  2.708175501769E+01
  2.740673607791E+01  2.773561691084E+01  2.806844431377E+01  2.840526564554E+01
  2.874612883328E+01  2.909108237928E+01  2.944017536783E+01  2.979345747225E+01
  3.015097896191E+01  3.051279070946E+01  3.087894419797E+01  3.124949152835E+01
  3.162448542669E+01  3.200397925181E+01  3.238802700283E+01  3.277668332686E+01
  3.317000352679E+01  3.356804356911E+01  3.397086009194E+01  3.437851041304E+01
  3.479105253800E+01  3.520854516845E+01  3.563104771047E+01  3.605862028300E+01
  3.649132372639E+01  3.692921961111E+01  3.737237024644E+01  3.782083868940E+01
  3.827468875368E+01  3.873398501872E+01  3.919879283894E+01  3.966917835301E+01
  4.014520849325E+01  4.062695099517E+01  4.111447440711E+01  4.160784809999E+01
  4.210714227719E+01  4.261242798452E+01  4.312377712033E+01  4.364126244578E+01
  4.416495759513E+01
</grid-data>
</grid>
<valence-charge total-charge="12" is-unscreening-charge="yes"
 rescaled-to-z-pseudo="no">
<radfunc>
<data npts="457">
  8.326476449111E-02  8.355581990892E-02  8.442622458781E-02  8.587950114820E-02
  8.790242858966E-02  9.056657004915E-02  9.396891294020E-02  9.787442934453E-02
  1.022779311384E-01  1.074293809360E-01  1.132569524951E-01  1.196163755198E-01
  1.273372127653E-01  1.354418603558E-01  1.450563634108E-01  1.547163831714E-01
  1.659119026309E-01  1.765949604280E-01  1.886871460379E-01  2.023813279428E-01
  2.178983956568E-01  2.317935352588E-01  2.471634547334E-01  2.641721808681E-01
  2.830032169690E-01  3.038620104694E-01  3.269787369408E-01  3.459521319543E-01
  3.664603855657E-01  3.886346055461E-01  4.126177389443E-01  4.385656526670E-01
  4.666482980346E-01  4.970509602711E-01  5.299755919632E-01  5.656422269410E-01
  6.042904676234E-01  6.461810344587E-01  6.760483548185E-01  7.075720992835E-01
  7.408472066275E-01  7.759738428024E-01  8.130576036929E-01  8.522097080999E-01
  8.935471768418E-01  9.371929931446E-01  9.832762386930E-01  1.031932198813E+00
  1.083302429257E+00  1.137534775963E+00  1.194783337920E+00  1.255208361982E+00
  1.318976056976E+00  1.386258312945E+00  1.457232309687E+00  1.532079997012E+00
  1.610987427335E+00  1.694143919354E+00  1.781741029727E+00  1.873971307810E+00
  1.971026806846E+00  2.073097323441E+00  2.180368335908E+00  2.293018611230E+00
  2.411217450021E+00  2.535121539276E+00  2.664871383889E+00  2.731976968610E+00
  2.800587290297E+00  2.870713495103E+00  2.942364879249E+00  3.015548721864E+00
  3.090270109964E+00  3.166531755579E+00  3.244333805077E+00  3.323673640791E+00
  3.404545675105E+00  3.486941137229E+00  3.570847852950E+00  3.656250017720E+00
  3.743127963544E+00  3.831457920194E+00  3.921211771374E+00  4.012356806585E+00
  4.104855469524E+00  4.198665103971E+00  4.293737698245E+00  4.390019629449E+00
  4.487451408826E+00  4.585967429722E+00  4.685495719788E+00  4.785957699175E+00
  4.887267946672E+00  4.989333975860E+00  5.092056023513E+00  5.195326852642E+00
  5.299031572724E+00  5.403047479796E+00  5.507243919252E+00  5.611482174300E+00
  5.715615383153E+00  5.819488488156E+00  5.922938220116E+00  6.025793121184E+00
  6.127873609687E+00  6.228992090320E+00  6.328953113106E+00  6.427553584483E+00
  6.524583033799E+00  6.619823938373E+00  6.713052110113E+00  6.804037146485E+00
  6.892542948328E+00  6.978328306742E+00  7.061147560860E+00  7.140751327921E+00
  7.216887306546E+00  7.289301153599E+00  7.357737434394E+00  7.421940645344E+00
  7.481656307451E+00  7.536632128239E+00  7.586619228923E+00  7.631373432758E+00
  7.670656609572E+00  7.704238070598E+00  7.731896006727E+00  7.753418962361E+00
  7.768607336064E+00  7.777274898238E+00  7.779250315137E+00  7.774378667592E+00
  7.762522951987E+00  7.743565550224E+00  7.717409654690E+00  7.683980633617E+00
  7.643227321714E+00  7.595123220538E+00  7.539667592823E+00  7.476886434871E+00
  7.406833311164E+00  7.329590035586E+00  7.245267184084E+00  7.154004424203E+00
  7.055970647788E+00  6.951363894213E+00  6.840411052800E+00  6.723367334630E+00
  6.600515505778E+00  6.472164876017E+00  6.338650039409E+00  6.200329365730E+00
  6.057583244579E+00  5.910812087041E+00  5.760434093179E+00  5.606882797110E+00
  5.450604405179E+00  5.292054946592E+00  5.131697259792E+00  4.969997841826E+00
  4.807423591784E+00  4.644438483072E+00  4.481500202659E+00  4.319056798352E+00
  4.157543377569E+00  3.997378902727E+00  3.838963129258E+00  3.682673732177E+00
  3.528863666059E+00  3.377858801113E+00  3.229955874845E+00  3.085420794492E+00
  2.944487320273E+00  2.807356153586E+00  2.674194366337E+00  2.545134922470E+00
  2.420276474169E+00  2.299685070859E+00  2.183400034440E+00  2.071441695828E+00
  1.963813418495E+00  1.860501846459E+00  1.761478502490E+00  1.666700900914E+00
  1.576113735302E+00  1.489650047159E+00  1.407232376645E+00  1.328773889693E+00
  1.254179475559E+00  1.183346810298E+00  1.116167381856E+00  1.052527473098E+00
  9.923090996853E-01  9.353909001963E-01  8.816489764484E-01  8.309576824474E-01
  7.831903608677E-01  7.382200264115E-01  6.959199958132E-01  6.561644646504E-01
  6.188290314887E-01  5.837911702287E-01  5.509306518377E-01  5.201299169320E-01
  4.912744009384E-01  4.642528137852E-01  4.389573762791E-01  4.152840154822E-01
  3.931325215430E-01  3.724066685269E-01  3.530143018540E-01  3.348673949728E-01
  3.178820778853E-01  3.019786400850E-01  2.870815103896E-01  2.731192160402E-01
  2.600243233210E-01  2.477333617563E-01  2.361867338950E-01  2.253286125566E-01
  2.151068271122E-01  2.054727404808E-01  1.963811183174E-01  1.877899918122E-01
  1.796605154512E-01  1.719568210264E-01  1.646458691243E-01  1.576972992569E-01
  1.510832797273E-01  1.447783582456E-01  1.387593142251E-01  1.330050135910E-01
  1.274962668428E-01  1.222156910061E-01  1.171475760142E-01  1.122777559614E-01
  1.075934855821E-01  1.030833222228E-01  9.873701349875E-02  9.454539075890E-02
  9.050026841964E-02  8.659434917775E-02  8.282113506452E-02  7.917484426552E-02
  7.565033359652E-02  7.224302649877E-02  6.894884639369E-02  6.576415521848E-02
  6.268569694863E-02  5.971054590192E-02  5.683605960874E-02  5.405983602725E-02
  5.137967487674E-02  4.879354286013E-02  4.629954254503E-02  4.389588467318E-02
  4.158086366972E-02  3.935283612676E-02  3.721020203984E-02  3.515138858137E-02
  3.317483620203E-02  3.127898685908E-02  2.946227417998E-02  2.772311538051E-02
  2.605990476881E-02  2.447100867964E-02  2.295476169806E-02  2.150946404565E-02
  2.013338001826E-02  1.882473736927E-02  1.758172760464E-02  1.640250701607E-02
  1.528519849445E-02  1.422789401687E-02  1.322865776504E-02  1.228552982434E-02
  1.139653040913E-02  1.055966455561E-02  9.772927216378E-03  9.034308683711E-03
  8.341800261511E-03  7.693400099815E-03  7.087119101945E-03  6.520986812806E-03
  5.993057198180E-03  5.501414228946E-03  5.044177190875E-03  4.619505649578E-03
  4.225604010827E-03  3.860725628248E-03  3.523176422730E-03  3.211317990217E-03
  2.923570186484E-03  2.658413188478E-03  2.414389041749E-03  2.190102712052E-03
  1.984222666345E-03  1.795481014119E-03  1.622673244244E-03  1.464657595477E-03
  1.320354100500E-03  1.188743343976E-03  1.068864974853E-03  9.598160120426E-04
  8.607489809115E-04  7.708699158013E-04  6.894362612198E-04  6.157547015106E-04
  5.491789458225E-04  4.891074921532E-04  4.349813912109E-04  3.862820278921E-04
  3.425289353654E-04  3.032776541208E-04  2.681176459387E-04  2.366702705494E-04
  2.085868308361E-04  1.835466907582E-04  1.612554687522E-04  1.414433081800E-04
  1.238632254313E-04  1.082895355176E-04  9.451635440241E-05  8.235617686481E-05
  7.163852836993E-05  6.220868919037E-05  5.392648887001E-05  4.666516902229E-05
  4.031031239394E-05  3.475883608840E-05  2.991804682112E-05  2.570475606308E-05
  2.204445291564E-05  1.887053254605E-05  1.612357799716E-05  1.375069316860E-05
  1.170488474947E-05  9.944490867683E-06  8.432654208815E-06  7.136837350704E-06
  6.028378059926E-06  5.082082304357E-06  4.275852753207E-06  3.590350562740E-06
  3.008688282657E-06  2.516151764584E-06  2.099949009931E-06  1.748983958789E-06
  1.453653293631E-06  1.205664410352E-06  9.978727934382E-07  8.241371206052E-07
  6.791905139771E-07  5.585264484727E-07  4.582979225978E-07  3.752285911548E-07
  3.065346526271E-07  2.498563753255E-07  2.031982351125E-07  1.648767230489E-07
  1.334749631643E-07  1.078033583688E-07  8.686555602639E-08  6.982909372465E-08
  5.600015020594E-08  4.480188624743E-08  3.575591553424E-08  2.846649635291E-08
  2.260708138078E-08  1.790890513169E-08  1.415132694104E-08  1.115368195189E-08
  8.768423632417E-09  6.875369153477E-09  5.376883726861E-09  4.193861991452E-09
  3.262383973369E-09  2.530940265987E-09  1.958136096497E-09  1.510797075397E-09
  1.162410859704E-09  8.918488824064E-10  6.823208785539E-10  5.205223278925E-10
  3.959412769750E-10  3.002964290827E-10  2.270830144522E-10  1.712068806360E-10
  1.286905666356E-10  9.643792759117E-11  7.204623256581E-11  5.365663078650E-11
  3.983552803134E-11  2.948078389810E-11  2.174777512981E-11  1.599130689416E-11
  1.172012462879E-11  8.561410936664E-12  6.233168203438E-12  4.522807776435E-12
  3.270607318962E-12  2.356973330564E-12  1.692667543341E-12  1.211333762154E-12
  8.638038588386E-13  6.137748211331E-13  4.345385856436E-13  3.065170056131E-13
  1.934898586971E-13  9.979558150347E-14  6.890284548585E-14  4.737567824002E-14
  3.243729235071E-14  2.211478816380E-14  1.501232287381E-14  1.014653009867E-14
  6.827615817641E-15  4.573824922991E-15  3.050181649017E-15  2.024809011344E-15
  1.337922071696E-15  8.799173284476E-16  5.759606758821E-16  3.751967071214E-16
  2.432290473197E-16  1.569050066269E-16  1.007157765627E-16  6.432379198882E-17
  4.087266670468E-17  2.583776625646E-17  1.624840534397E-17  1.016419806897E-17
  6.324330631397E-18  3.913877506170E-18  2.408922979866E-18  1.474460314061E-18
  8.974471217038E-19  5.431515576213E-19  3.268436005543E-19  1.955400847548E-19
  1.162995852354E-19  6.876008699223E-20  4.040913122808E-20  2.360347994487E-20
  1.370232267643E-20  7.904998413194E-21  4.531753154306E-21  2.581395689042E-21
  1.460943389512E-21  8.214267166725E-22  4.588033444312E-22  2.545491875383E-22
  1.402715039490E-22  0.000000000000E+00  0.000000000000E+00  0.000000000000E+00
  0.000000000000E+00
</data>
</radfunc>
</valence-charge>
<pseudocore-charge matching-radius="0.831700866650"
 number-of-continuous-derivatives="4">
<annotation model-charge-form="Teter function with specified parameters" />
<radfunc>
<data npts="290">
  3.996570121500E+01  3.996315378171E+01  3.995553864574E+01  3.994283397737E+01
  3.992517011676E+01  3.990194396975E+01  3.987234245234E+01  3.983844601020E+01
  3.980033289127E+01  3.975588668698E+01  3.970578783172E+01  3.965133335803E+01
  3.958552137948E+01  3.951678682151E+01  3.943570353720E+01  3.935472651890E+01
  3.926148106125E+01  3.917309612687E+01  3.907373676476E+01  3.896207211263E+01
  3.883661846117E+01  3.872522351269E+01  3.860302017705E+01  3.846899772237E+01
  3.832205886900E+01  3.816101408115E+01  3.798457586859E+01  3.784131253185E+01
  3.768798339011E+01  3.752392602771E+01  3.734844132668E+01  3.716079253156E+01
  3.696020449047E+01  3.674586311681E+01  3.651691512209E+01  3.627246807810E+01
  3.601159087429E+01  3.573331464481E+01  3.553763610076E+01  3.533347227190E+01
  3.512051039948E+01  3.489843175814E+01  3.466691216758E+01  3.442562259119E+01
  3.417422982937E+01  3.391239731591E+01  3.363978602595E+01  3.335605550473E+01
  3.306086502626E+01  3.275387489162E+01  3.243474787664E+01  3.210315083893E+01
  3.175875649399E+01  3.140124537042E+01  3.103030795367E+01  3.064564702731E+01
  3.024698022051E+01  2.983404276904E+01  2.940659049641E+01  2.896440301991E+01
  2.850728718482E+01  2.803508072752E+01  2.754765616589E+01  2.704492491190E+01
  2.652684159796E+01  2.599340860393E+01  2.544468076719E+01  2.516461395893E+01
  2.488077025236E+01  2.459317344583E+01  2.430185155104E+01  2.400683695378E+01
  2.370816657503E+01  2.340588203202E+01  2.310002979885E+01  2.279066136606E+01
  2.247783339874E+01  2.216160789247E+01  2.184205232653E+01  2.151923981384E+01
  2.119324924664E+01  2.086416543748E+01  2.053207925456E+01  2.019708775054E+01
  1.985929428417E+01  1.951880863355E+01  1.917574710026E+01  1.883023260329E+01
  1.848239476170E+01  1.813236996492E+01  1.778030142972E+01  1.742633924245E+01
  1.707064038558E+01  1.671336874724E+01  1.635469511247E+01  1.599479713508E+01
  1.563385928868E+01  1.527207279568E+01  1.490963553308E+01  1.454675191355E+01
  1.418363274079E+01  1.382049503775E+01  1.345756184665E+01  1.309506199956E+01
  1.273322985850E+01  1.237230502399E+01  1.201253201115E+01  1.165415989247E+01
  1.129744190655E+01  1.094263503214E+01  1.058999952716E+01  1.023979843214E+01
  9.892297038311E+00  9.547762320035E+00  9.206462332184E+00  8.868665572782E+00
  8.534640311782E+00  8.204653886965E+00  7.878971968320E+00  7.557857792518E+00
  7.241571369430E+00  6.930368662977E+00  6.624500748934E+00  6.324212952693E+00
  6.029743970315E+00  5.741324976631E+00  5.459178724471E+00  5.183518639522E+00
  4.914547915664E+00  4.652458615995E+00  4.397430785135E+00  4.149631578678E+00
  3.909214416031E+00  3.676318163107E+00  3.451066351607E+00  3.233566441809E+00
  3.023909135954E+00  2.822167749377E+00  2.628397646595E+00  2.442635749499E+00
  2.264900124690E+00  2.095189656786E+00  1.933483814258E+00  1.779742513934E+00
  1.633906089855E+00  1.495895371556E+00  1.365611876161E+00  1.242938117885E+00
  1.127738037606E+00  1.019857554188E+00  9.191252381080E-01  8.253531067314E-01
  7.383375393127E-01  6.578603084120E-01  5.836897230130E-01  5.155818771552E-01
  4.532819964035E-01  3.965258729862E-01  3.450413789566E-01  2.985500453069E-01
  2.567686936090E-01  2.194111055065E-01  1.861897142641E-01  1.568173016312E-01
  1.310086825154E-01  1.084823594350E-01  8.896212843653E-02  7.217861816753E-02
  5.787074409542E-02  4.578706048238E-02  3.568699367781E-02  2.734194157475E-02
  2.053622569618E-02  1.506788431988E-02  1.074929729712E-02  7.407635743416E-03
  4.885132539737E-03  3.039172533969E-03  1.742204416809E-03  8.814794000471E-04
  3.586249751021E-04  8.906509800282E-05  1.301051513050E-06  3.606989210809E-05
  1.453997162437E-04  2.915828979382E-04  4.460898862136E-04  5.884470447037E-04
  7.051023184245E-04  7.883021923915E-04  8.350024506686E-04  8.458336610140E-04
  8.241401308772E-04  7.751083599210E-04  7.049978305522E-04  6.204834310478E-04
  5.281150149466E-04  4.338957001715E-04  3.429766472168E-04  2.594623777850E-04
  1.863173515354E-04  1.253616478541E-04  7.734132365821E-05  4.205743499759E-05
  1.853688668987E-05  5.228241397722E-06  2.063685158811E-07  1.371293529700E-06
  6.628728888137E-06  1.404239927236E-05  2.195125753178E-05  2.904783999370E-05
  3.441713708536E-05  3.753826374494E-05  3.825372451663E-05  3.671302836074E-05
  3.329870515621E-05  2.854334567487E-05  2.304612083033E-05  1.739638310962E-05
  1.211051704802E-05  7.586337535173E-06  4.077220911154E-06  1.685999497197E-06
  3.766609088989E-07  2.552039705970E-10  3.302733617939E-07  1.102213634561E-06
  2.052127339668E-06  2.949593650323E-06  3.621710071647E-06  3.966144314218E-06
  3.952881747056E-06  3.615816193901E-06  3.036580049054E-06  2.323840809528E-06
  1.591612801093E-06  9.399252888409E-07  4.405072808672E-07  1.291192189062E-07
  4.956312214214E-09  0.000000000000E+00  0.000000000000E+00  0.000000000000E+00
  0.000000000000E+00  0.000000000000E+00  0.000000000000E+00  0.000000000000E+00
  0.000000000000E+00  0.000000000000E+00  0.000000000000E+00  0.000000000000E+00
  0.000000000000E+00  0.000000000000E+00  0.000000000000E+00  0.000000000000E+00
  0.000000000000E+00  0.000000000000E+00  0.000000000000E+00  0.000000000000E+00
  0.000000000000E+00  0.000000000000E+00  0.000000000000E+00  0.000000000000E+00
  0.000000000000E+00  0.000000000000E+00  0.000000000000E+00  0.000000000000E+00
  0.000000000000E+00  0.000000000000E+00  0.000000000000E+00  0.000000000000E+00
  0.000000000000E+00  0.000000000000E+00  0.000000000000E+00  0.000000000000E+00
  0.000000000000E+00  0.000000000000E+00  0.000000000000E+00  0.000000000000E+00
  0.000000000000E+00  0.000000000000E+00  0.000000000000E+00  0.000000000000E+00
  0.000000000000E+00  0.000000000000E+00  0.000000000000E+00  0.000000000000E+00
  0.000000000000E+00  0.000000000000E+00
</data>
</radfunc>
</pseudocore-charge>
<semilocal-potentials set="lj">
<slps n="4" l="s" j="0.5" rc="1.56507198192" eref="-2.00032060541">
<radfunc>
<data npts="290">
  4.070275466807E+01  4.067618012053E+01  4.059687393459E+01  4.046501014853E+01
  4.028259550988E+01  4.004435602800E+01  3.974335342756E+01  3.940224861858E+01
  3.902318876649E+01  3.858701709064E+01  3.810279592620E+01  3.758518783724E+01
  3.697141018925E+01  3.634374479350E+01  3.562029503041E+01  3.491549739121E+01
  3.412500084834E+01  3.339573684342E+01  3.259824569174E+01  3.172898108927E+01
  3.078484270675E+01  2.997391820798E+01  2.911252360424E+01  2.820009150427E+01
  2.723647819826E+01  2.622201651285E+01  2.515756410785E+01  2.432725265632E+01
  2.347043036361E+01  2.258811220784E+01  2.168151053749E+01  2.075203510282E+01
  1.980129017305E+01  1.883106858629E+01  1.784334265478E+01  1.684025193367E+01
  1.582408795392E+01  1.479727611518E+01  1.410806906486E+01  1.341603153318E+01
  1.272195369147E+01  1.202663706224E+01  1.133089110300E+01  1.063552973514E+01
  9.941367852868E+00  9.249217847671E+00  8.559886183505E+00  7.874170057507E+00
  7.192854179572E+00  6.516707702488E+00  5.846481332043E+00  5.182904643811E+00
  4.526683630262E+00  3.878498498451E+00  3.239001734942E+00  2.608816450819E+00
  1.988535015792E+00  1.378717986518E+00  7.798933304462E-01  1.925559427726E-01
 -3.828325494357E-01 -9.458437052204E-01 -1.496081922164E+00 -2.033183838423E+00
 -2.556817502034E+00 -3.066681327370E+00 -3.562502860552E+00 -3.805070249431E+00
 -4.044037377255E+00 -4.279377732669E+00 -4.511066337683E+00 -4.739079693408E+00
 -4.963395724592E+00 -5.183993723175E+00 -5.400854291066E+00 -5.613959282380E+00
 -5.823291745332E+00 -6.028835864018E+00 -6.230576900293E+00 -6.428501135969E+00
 -6.622595815540E+00 -6.812849089652E+00 -6.999249959526E+00 -7.181788222541E+00
 -7.360454419178E+00 -7.535239781526E+00 -7.706136183543E+00 -7.873136093252E+00
 -8.036232527059E+00 -8.195419006353E+00 -8.350689516568E+00 -8.502038468830E+00
 -8.649460664350E+00 -8.792951261675E+00 -8.932505746926E+00 -9.068119907081E+00
 -9.199789806423E+00 -9.327511766184E+00 -9.451282347432E+00 -9.571098337211E+00
 -9.686956737939E+00 -9.798854760021E+00 -9.906789817623E+00 -1.001075952752E+01
 -1.011076171094E+01 -1.020679439814E+01 -1.029885583579E+01 -1.038694449665E+01
 -1.047105909157E+01 -1.055119858345E+01 -1.062736220282E+01 -1.069954946481E+01
 -1.076776018719E+01 -1.083199450898E+01 -1.089225290937E+01 -1.094853622647E+01
 -1.100084567553E+01 -1.104918286615E+01 -1.109354981807E+01 -1.113394897510E+01
 -1.117038321685E+01 -1.120285586774E+01 -1.123137070315E+01 -1.125593195228E+01
 -1.127654429753E+01 -1.129321287038E+01 -1.130594324384E+01 -1.131474142141E+01
 -1.131961382330E+01 -1.132056727022E+01 -1.131760896581E+01 -1.131074647884E+01
 -1.129998772692E+01 -1.128534096356E+01 -1.126681477131E+01 -1.124441806405E+01
 -1.121816010207E+01 -1.118805052461E+01 -1.115409940485E+01 -1.111631733365E+01
 -1.107471553878E+01 -1.102930604773E+01 -1.098010190286E+01 -1.092711743878E+01
 -1.087036863279E+01 -1.080987354010E+01 -1.074565282649E+01 -1.067773041150E+01
 -1.060613423601E+01 -1.053089716809E+01 -1.045205806081E+01 -1.036966297516E+01
 -1.028376657975E+01 -1.019443373729E+01 -1.010174128463E+01 -1.000578000961E+01