S     ONCVPSP-3.3.0  r_core=   1.40265   1.56162   1.80194
16.0000     14.0000      180430    zatom,zion,pspd
8 -116133   2     4   600     0    pspcod,pspxc,lmax,lloc,mmax,r2well
5.99000000  0.00000000  0.00000000    rchrg fchrg qchrg
2     2     2     0    nproj
3     1           extension_switch
3     3     0    nprojso
0                        -6.6827424206438D+00 -1.3424364680185D+00
1  0.0000000000000D+00 -9.1474383623336D-11  9.6794283699353D-10
2  1.0000000000000D-02  7.8609785075500D-02 -6.5903002921915D-02
3  2.0000000000000D-02  1.5702694453064D-01 -1.3142484719370D-01
4  3.0000000000000D-02  2.3505952819005D-01 -1.9618673403039D-01
5  4.0000000000000D-02  3.1251693355727D-01 -2.5981456377853D-01
6  5.0000000000000D-02  3.8921057164993D-01 -3.2194123423623D-01
7  6.0000000000000D-02  4.6495452329557D-01 -3.8220887817719D-01
8  7.0000000000000D-02  5.3956618281671D-01 -4.4027102096825D-01
9  8.0000000000000D-02  6.1286688612538D-01 -4.9579464013737D-01
10  9.0000000000000D-02  6.8468252035981D-01 -5.4846210993302D-01
11  1.0000000000000D-01  7.5484411232742D-01 -5.9797301529761D-01
12  1.1000000000000D-01  8.2318839316893D-01 -6.4404582123847D-01
13  1.2000000000000D-01  8.8955833682439D-01 -6.8641938529644D-01
14  1.3000000000000D-01  9.5380367006319D-01 -7.2485430266035D-01
15  1.4000000000000D-01  1.0157813520337D+00 -7.5913407542927D-01
16  1.5000000000000D-01  1.0753560214922D+00 -7.8906609955445D-01
17  1.6000000000000D-01  1.1324004100836D+00 -8.1448246507214D-01
18  1.7000000000000D-01  1.1867957202639D+00 -8.3524056733615D-01
19  1.8000000000000D-01  1.2384319666769D+00 -8.5122352904603D-01
20  1.9000000000000D-01  1.2872082800231D+00 -8.6234043491450D-01
21  2.0000000000000D-01  1.3330331726780D+00 -8.6852638279662D-01
22  2.1000000000000D-01  1.3758247655406D+00 -8.6974235698714D-01
23  2.2000000000000D-01  1.4155109758069D+00 -8.6597493115548D-01
24  2.3000000000000D-01  1.4520296655707D+00 -8.5723581000558D-01
25  2.4000000000000D-01  1.4853287513568D+00 -8.4356122020116D-01
26  2.5000000000000D-01  1.5153662748779D+00 -8.2501116236464D-01
27  2.6000000000000D-01  1.5421104354882D+00 -8.0166853702720D-01
28  2.7000000000000D-01  1.5655395849705D+00 -7.7363815826386D-01
29  2.8000000000000D-01  1.5856421854467D+00 -7.4104566938339D-01
30  2.9000000000000D-01  1.6024167313405D+00 -7.0403637545253D-01
31  3.0000000000000D-01  1.6158716364418D+00 -6.6277400761518D-01
32  3.1000000000000D-01  1.6260250872334D+00 -6.1743943412316D-01
33  3.2000000000000D-01  1.6329048637333D+00 -5.6822933272931D-01
34  3.3000000000000D-01  1.6365481291849D+00 -5.1535483861706D-01
35  3.4000000000000D-01  1.6370011899913D+00 -4.5904018136383D-01
36  3.5000000000000D-01  1.6343192273432D+00 -3.9952132357546D-01
37  3.6000000000000D-01  1.6285660020271D+00 -3.3704461280275D-01
38  3.7000000000000D-01  1.6198135339293D+00 -2.7186545718022D-01
39  3.8000000000000D-01  1.6081417577677D+00 -2.0424703393548D-01
40  3.9000000000000D-01  1.5936381565910D+00 -1.3445903852852D-01
41  4.0000000000000D-01  1.5763973745882D+00 -6.2776480721990D-02
42  4.1000000000000D-01  1.5565208107418D+00  1.0521467617212D-02
43  4.2000000000000D-01  1.5341161948540D+00  8.5152569700110D-02
44  4.3000000000000D-01  1.5092971474556D+00  1.6083256419740D-01
45  4.4000000000000D-01  1.4821827251004D+00  2.3727614849579D-01
46  4.5000000000000D-01  1.4528969525265D+00  3.1419790589490D-01
47  4.6000000000000D-01  1.4215683431586D+00  3.9131317910579D-01
48  4.7000000000000D-01  1.3883294094108D+00  4.6833889359042D-01
49  4.8000000000000D-01  1.3533161642437D+00  5.4499433531797D-01
50  4.9000000000000D-01  1.3166676154270D+00  6.2100188839204D-01
51  5.0000000000000D-01  1.2785252539606D+00  6.9608773870444D-01
52  5.1000000000000D-01  1.2390325381156D+00  7.6998255028372D-01
53  5.2000000000000D-01  1.1983343745695D+00  8.4242212132096D-01
54  5.3000000000000D-01  1.1565765981301D+00  9.1314802696368D-01
55  5.4000000000000D-01  1.1139054515685D+00  9.8190825587038D-01
56  5.5000000000000D-01  1.0704670671116D+00  1.0484578472136D+00
57  5.6000000000000D-01  1.0264069511788D+00  1.1125595343135D+00
58  5.7000000000000D-01  9.8186947398902D-01  1.1739844003880D+00
59  5.8000000000000D-01  9.3699736570375D-01  1.2325125510278D+00
60  5.9000000000000D-01  8.9193122081448D-01  1.2879338069680D+00
61  6.0000000000000D-01  8.4680901252790D-01  1.3400484195421D+00
62  6.1000000000000D-01  8.0176561894051D-01  1.3886678099063D+00
63  6.2000000000000D-01  7.5693236283369D-01  1.4336153317167D+00
64  6.3000000000000D-01  7.1243656695134D-01  1.4747270554796D+00
65  6.4000000000000D-01  6.6840112664769D-01  1.5118525712842D+00
66  6.5000000000000D-01  6.2494410180844D-01  1.5448558051086D+00
67  6.6000000000000D-01  5.8217832995327D-01  1.5736158423995D+00
68  6.7000000000000D-01  5.4021106241982D-01  1.5980277511761D+00
69  6.8000000000000D-01  4.9914362550683D-01  1.6180033955537D+00
70  6.9000000000000D-01  4.5907110841523D-01  1.6334722293347D+00
71  7.0000000000000D-01  4.2008207977036D-01  1.6443820582144D+00
72  7.1000000000000D-01  3.8225833443314D-01  1.6506997582111D+00
73  7.2000000000000D-01  3.4567467221385D-01  1.6524119371947D+00
74  7.3000000000000D-01  3.1039870998696D-01  1.6495255258627D+00
75  7.4000000000000D-01  2.7649072857010D-01  1.6420682842233D+00
76  7.5000000000000D-01  2.4400355557342D-01  1.6300892096042D+00
77  7.6000000000000D-01  2.1298248524845D-01  1.6136588324272D+00
78  7.7000000000000D-01  1.8346523616833D-01  1.5928693864712D+00
79  7.8000000000000D-01  1.5548194735517D-01  1.5678348411036D+00
80  7.9000000000000D-01  1.2905521323599D-01  1.5386907839774D+00
81  8.0000000000000D-01  1.0420015755870D-01  1.5055941439720D+00
82  8.1000000000000D-01  8.0924546135232D-02  1.4687227456820D+00
83  8.2000000000000D-01  5.9228938002749D-02  1.4282746885133D+00
84  8.3000000000000D-01  3.9106874308629D-02  1.3844675454175D+00
85  8.4000000000000D-01  2.0545103932991D-02  1.3375373784457D+00
86  8.5000000000000D-01  3.5238445681363D-03  1.2877375706158D+00
87  8.6000000000000D-01 -1.1982922321228D-02  1.2353374760248D+00
88  8.7000000000000D-01 -2.6007124523993D-02  1.1806208926653D+00
89  8.8000000000000D-01 -3.8586242246217D-02  1.1238843649892D+00
90  8.9000000000000D-01 -4.9762923836863D-02  1.0654353258541D+00
91  9.0000000000000D-01 -5.9584576759784D-02  1.0055900900661D+00
92  9.1000000000000D-01 -6.8102936736842D-02  9.4467171423454D-01
93  9.2000000000000D-01 -7.5373618206883D-02  8.8300774005149D-01
94  9.3000000000000D-01 -8.1455649440169D-02  8.2092784036215D-01
95  9.4000000000000D-01 -8.6410995814953D-02  7.5876138945291D-01
96  9.5000000000000D-01 -9.0304074899146D-02  6.9683498082483D-01
97  9.6000000000000D-01 -9.3201267083044D-02  6.3546991729998D-01
98  9.7000000000000D-01 -9.5170425576646D-02  5.7497969959915D-01
99  9.8000000000000D-01 -9.6280389615520D-02  5.1566754050235D-01
100  9.9000000000000D-01 -9.6600504710269D-02  4.5782393233358D-01
101  1.0000000000000D+00 -9.6200153726589D-02  4.0172429577498D-01
102  1.0100000000000D+00 -9.5148302497897D-02  3.4762673793296D-01
103  1.0200000000000D+00 -9.3513063540751D-02  2.9576994707045D-01
104  1.0300000000000D+00 -9.1361281279696D-02  2.4637125055969D-01
105  1.0400000000000D+00 -8.8758141983396D-02  1.9962486136183D-01
106  1.0500000000000D+00 -8.5766811368732D-02  1.5570033667752D-01
107  1.0600000000000D+00 -8.2448102558175D-02  1.1474127044951D-01
108  1.0700000000000D+00 -7.8860176777831D-02  7.6864239149531D-02
109  1.0800000000000D+00 -7.5058278827884D-02  4.2158017470304D-02
110  1.0900000000000D+00 -7.1094509019125D-02  1.0683077792658D-02
111  1.1000000000000D+00 -6.7017632862504D-02 -1.7528616098114D-02
112  1.1100000000000D+00 -6.2872929441350D-02 -4.2473513612343D-02
113  1.1200000000000D+00 -5.8702078956947D-02 -6.4176076635292D-02
114  1.1300000000000D+00 -5.4543089524536D-02 -8.2688073503647D-02
115  1.1400000000000D+00 -5.0430262875977D-02 -9.8087571459720D-02
116  1.1500000000000D+00 -4.6394198234553D-02 -1.1047763489342D-01
117  1.1600000000000D+00 -4.2461833222192D-02 -1.1998474033776D-01
118  1.1700000000000D+00 -3.8656520190631D-02 -1.2675692368824D-01
119  1.1800000000000D+00 -3.4998136171374D-02 -1.3096167633103D-01
120  1.1900000000000D+00 -3.1503223385904D-02 -1.3278362208799D-01
121  1.2000000000000D+00 -2.8185160692606D-02 -1.3242196027345D-01
122  1.2100000000000D+00 -2.5054352004773D-02 -1.3008785024892D-01
123  1.2200000000000D+00 -2.2118426095704D-02 -1.2600179926983D-01
124  1.2300000000000D+00 -1.9382401456253D-02 -1.2039164269509D-01
125  1.2400000000000D+00 -1.6848867941432D-02 -1.1349040169319D-01
126  1.2500000000000D+00 -1.4518197848508D-02 -1.0553383153632D-01
127  1.2600000000000D+00 -1.2388764337664D-02 -9.6757960327530D-02
128  1.2700000000000D+00 -1.0457170612610D-02 -8.7396559012168D-02
129  1.2800000000000D+00 -8.7184853356551D-03 -7.7678594220220D-02
130  1.2900000000000D+00 -7.1664802525758D-03 -6.7825707438680D-02
131  1.3000000000000D+00 -5.7938660569321D-03 -5.8049761726063D-02
132  1.3100000000000D+00 -4.5925228152093D-03 -4.8550494201501D-02
133  1.3200000000000D+00 -3.5537210178008D-03 -3.9513314926349D-02
134  1.3300000000000D+00 -2.6683299855376D-03 -3.1107284901934D-02
135  1.3400000000000D+00 -1.9270104794382D-03 -2.3483305007904D-02
136  1.3500000000000D+00 -1.3203883462755D-03 -1.6772547388536D-02
137  1.3600000000000D+00 -8.3941078776116D-04 -1.1088444226718D-02
138  1.3700000000000D+00 -4.7436791702895D-04 -6.5077320014441D-03
139  1.3800000000000D+00 -2.1617047282395D-04 -3.0886043288866D-03
140  1.3900000000000D+00 -6.2420497873832D-05 -9.6923478521922D-04
141  1.4000000000000D+00  2.2921950285583D-06 -4.1620480713721D-05
142  1.4100000000000D+00  1.0537963553106D-05  1.1586891569262D-04
143  1.4200000000000D+00 -3.5887521126027D-07 -4.1904850601548D-06
144  1.4300000000000D+00 -2.3446745007828D-06 -2.8264276597042D-05
145  1.4400000000000D+00  3.6086058003297D-07  4.0586405829810D-06
146  1.4500000000000D+00  3.2140787766253D-07  3.6589121501227D-06
147  1.4600000000000D+00 -2.2675269053930D-08 -1.4675094056170D-07
148  1.4700000000000D+00 -4.8880963447748D-09 -3.1635026444265D-08
149  1.4800000000000D+00  0.0000000000000D+00  0.0000000000000D+00
150  1.4900000000000D+00  0.0000000000000D+00  0.0000000000000D+00
151  1.5000000000000D+00  0.0000000000000D+00  0.0000000000000D+00
152  1.5100000000000D+00  0.0000000000000D+00  0.0000000000000D+00
153  1.5200000000000D+00  0.0000000000000D+00  0.0000000000000D+00
154  1.5300000000000D+00  0.0000000000000D+00  0.0000000000000D+00
155  1.5400000000000D+00  0.0000000000000D+00  0.0000000000000D+00
156  1.5500000000000D+00  0.0000000000000D+00  0.0000000000000D+00
157  1.5600000000000D+00  0.0000000000000D+00  0.0000000000000D+00
158  1.5700000000000D+00  0.0000000000000D+00  0.0000000000000D+00
159  1.5800000000000D+00  0.0000000000000D+00  0.0000000000000D+00
160  1.5900000000000D+00  0.0000000000000D+00  0.0000000000000D+00
161  1.6000000000000D+00  0.0000000000000D+00  0.0000000000000D+00
162  1.6100000000000D+00  0.0000000000000D+00  0.0000000000000D+00
163  1.6200000000000D+00  0.0000000000000D+00  0.0000000000000D+00
164  1.6300000000000D+00  0.0000000000000D+00  0.0000000000000D+00
165  1.6400000000000D+00  0.0000000000000D+00  0.0000000000000D+00
166  1.6500000000000D+00  0.0000000000000D+00  0.0000000000000D+00
167  1.6600000000000D+00  0.0000000000000D+00  0.0000000000000D+00
168  1.6700000000000D+00  0.0000000000000D+00  0.0000000000000D+00
169  1.6800000000000D+00  0.0000000000000D+00  0.0000000000000D+00
170  1.6900000000000D+00  0.0000000000000D+00  0.0000000000000D+00
171  1.7000000000000D+00  0.0000000000000D+00  0.0000000000000D+00
172  1.7100000000000D+00  0.0000000000000D+00  0.0000000000000D+00
173  1.7200000000000D+00  0.0000000000000D+00  0.0000000000000D+00
174  1.7300000000000D+00  0.0000000000000D+00  0.0000000000000D+00
175  1.7400000000000D+00  0.0000000000000D+00  0.0000000000000D+00
176  1.7500000000000D+00  0.0000000000000D+00  0.0000000000000D+00
177  1.7600000000000D+00  0.0000000000000D+00  0.0000000000000D+00
178  1.7700000000000D+00  0.0000000000000D+00  0.0000000000000D+00
179  1.7800000000000D+00  0.0000000000000D+00  0.0000000000000D+00
180  1.7900000000000D+00  0.0000000000000D+00  0.0000000000000D+00
181  1.8000000000000D+00  0.0000000000000D+00  0.0000000000000D+00
182  1.8100000000000D+00  0.0000000000000D+00  0.0000000000000D+00
183  1.8200000000000D+00  0.0000000000000D+00  0.0000000000000D+00
184  1.8300000000000D+00  0.0000000000000D+00  0.0000000000000D+00
185  1.8400000000000D+00  0.0000000000000D+00  0.0000000000000D+00
186  1.8500000000000D+00  0.0000000000000D+00  0.0000000000000D+00
187  1.8600000000000D+00  0.0000000000000D+00  0.0000000000000D+00
188  1.8700000000000D+00  0.0000000000000D+00  0.0000000000000D+00
189  1.8800000000000D+00  0.0000000000000D+00  0.0000000000000D+00
190  1.8900000000000D+00  0.0000000000000D+00  0.0000000000000D+00
191  1.9000000000000D+00  0.0000000000000D+00  0.0000000000000D+00
192  1.9100000000000D+00  0.0000000000000D+00  0.0000000000000D+00
193  1.9200000000000D+00  0.0000000000000D+00  0.0000000000000D+00
194  1.9300000000000D+00  0.0000000000000D+00  0.0000000000000D+00
195  1.9400000000000D+00  0.0000000000000D+00  0.0000000000000D+00
196  1.9500000000000D+00  0.0000000000000D+00  0.0000000000000D+00
197  1.9600000000000D+00  0.0000000000000D+00  0.0000000000000D+00
198  1.9700000000000D+00  0.0000000000000D+00  0.0000000000000D+00
199  1.9800000000000D+00  0.0000000000000D+00  0.0000000000000D+00
200  1.9900000000000D+00  0.0000000000000D+00  0.0000000000000D+00
201  2.0000000000000D+00  0.0000000000000D+00  0.0000000000000D+00
202  2.0100000000000D+00  0.0000000000000D+00  0.0000000000000D+00
203  2.0200000000000D+00  0.0000000000000D+00  0.0000000000000D+00
204  2.0300000000000D+00  0.0000000000000D+00  0.0000000000000D+00
205  2.0400000000000D+00  0.0000000000000D+00  0.0000000000000D+00
206  2.0500000000000D+00  0.0000000000000D+00  0.0000000000000D+00
207  2.0600000000000D+00  0.0000000000000D+00  0.0000000000000D+00
208  2.0700000000000D+00  0.0000000000000D+00  0.0000000000000D+00
209  2.0800000000000D+00  0.0000000000000D+00  0.0000000000000D+00
210  2.0900000000000D+00  0.0000000000000D+00  0.0000000000000D+00
211  2.1000000000000D+00  0.0000000000000D+00  0.0000000000000D+00
212  2.1100000000000D+00  0.0000000000000D+00  0.0000000000000D+00
213  2.1200000000000D+00  0.0000000000000D+00  0.0000000000000D+00
214  2.1300000000000D+00  0.0000000000000D+00  0.0000000000000D+00
215  2.1400000000000D+00  0.0000000000000D+00  0.0000000000000D+00
216  2.1500000000000D+00  0.0000000000000D+00  0.0000000000000D+00
217  2.1600000000000D+00  0.0000000000000D+00  0.0000000000000D+00
218  2.1700000000000D+00  0.0000000000000D+00  0.0000000000000D+00
219  2.1800000000000D+00  0.0000000000000D+00  0.0000000000000D+00
220  2.1900000000000D+00  0.0000000000000D+00  0.0000000000000D+00
221  2.2000000000000D+00  0.0000000000000D+00  0.0000000000000D+00
222  2.2100000000000D+00  0.0000000000000D+00  0.0000000000000D+00
223  2.2200000000000D+00  0.0000000000000D+00  0.0000000000000D+00
224  2.2300000000000D+00  0.0000000000000D+00  0.0000000000000D+00
225  2.2400000000000D+00  0.0000000000000D+00  0.0000000000000D+00
226  2.2500000000000D+00  0.0000000000000D+00  0.0000000000000D+00
227  2.2600000000000D+00  0.0000000000000D+00  0.0000000000000D+00
228  2.2700000000000D+00  0.0000000000000D+00  0.0000000000000D+00
229  2.2800000000000D+00  0.0000000000000D+00  0.0000000000000D+00
230  2.2900000000000D+00  0.0000000000000D+00  0.0000000000000D+00
231  2.3000000000000D+00  0.0000000000000D+00  0.0000000000000D+00
232  2.3100000000000D+00  0.0000000000000D+00  0.0000000000000D+00
233  2.3200000000000D+00  0.0000000000000D+00  0.0000000000000D+00
234  2.3300000000000D+00  0.0000000000000D+00  0.0000000000000D+00
235  2.3400000000000D+00  0.0000000000000D+00  0.0000000000000D+00
236  2.3500000000000D+00  0.0000000000000D+00  0.0000000000000D+00
237  2.3600000000000D+00  0.0000000000000D+00  0.0000000000000D+00
238  2.3700000000000D+00  0.0000000000000D+00  0.0000000000000D+00
239  2.3800000000000D+00  0.0000000000000D+00  0.0000000000000D+00
240  2.3900000000000D+00  0.0000000000000D+00  0.0000000000000D+00
241  2.4000000000000D+00  0.0000000000000D+00  0.0000000000000D+00
242  2.4100000000000D+00  0.0000000000000D+00  0.0000000000000D+00
243  2.4200000000000D+00  0.0000000000000D+00  0.0000000000000D+00
244  2.4300000000000D+00  0.0000000000000D+00  0.0000000000000D+00
245  2.4400000000000D+00  0.0000000000000D+00  0.0000000000000D+00
246  2.4500000000000D+00  0.0000000000000D+00  0.0000000000000D+00
247  2.4600000000000D+00  0.0000000000000D+00  0.0000000000000D+00
248  2.4700000000000D+00  0.0000000000000D+00  0.0000000000000D+00
249  2.4800000000000D+00  0.0000000000000D+00  0.0000000000000D+00
250  2.4900000000000D+00  0.0000000000000D+00  0.0000000000000D+00
251  2.5000000000000D+00  0.0000000000000D+00  0.0000000000000D+00
252  2.5100000000000D+00  0.0000000000000D+00  0.0000000000000D+00
253  2.5200000000000D+00  0.0000000000000D+00  0.0000000000000D+00
254  2.5300000000000D+00  0.0000000000000D+00  0.0000000000000D+00
255  2.5400000000000D+00  0.0000000000000D+00  0.0000000000000D+00
256  2.5500000000000D+00  0.0000000000000D+00  0.0000000000000D+00
257  2.5600000000000D+00  0.0000000000000D+00  0.0000000000000D+00
258  2.5700000000000D+00  0.0000000000000D+00  0.0000000000000D+00
259  2.5800000000000D+00  0.0000000000000D+00  0.0000000000000D+00
260  2.5900000000000D+00  0.0000000000000D+00  0.0000000000000D+00
261  2.6000000000000D+00  0.0000000000000D+00  0.0000000000000D+00
262  2.6100000000000D+00  0.0000000000000D+00  0.0000000000000D+00
263  2.6200000000000D+00  0.0000000000000D+00  0.0000000000000D+00
264  2.6300000000000D+00  0.0000000000000D+00  0.0000000000000D+00
265  2.6400000000000D+00  0.0000000000000D+00  0.0000000000000D+00
266  2.6500000000000D+00  0.0000000000000D+00  0.0000000000000D+00
267  2.6600000000000D+00  0.0000000000000D+00  0.0000000000000D+00
268  2.6700000000000D+00  0.0000000000000D+00  0.0000000000000D+00
269  2.6800000000000D+00  0.0000000000000D+00  0.0000000000000D+00
270  2.6900000000000D+00  0.0000000000000D+00  0.0000000000000D+00
271  2.7000000000000D+00  0.0000000000000D+00  0.0000000000000D+00
272  2.7100000000000D+00  0.0000000000000D+00  0.0000000000000D+00
273  2.7200000000000D+00  0.0000000000000D+00  0.0000000000000D+00
274  2.7300000000000D+00  0.0000000000000D+00  0.0000000000000D+00
275  2.7400000000000D+00  0.0000000000000D+00  0.0000000000000D+00
276  2.7500000000000D+00  0.0000000000000D+00  0.0000000000000D+00
277  2.7600000000000D+00  0.0000000000000D+00  0.0000000000000D+00
278  2.7700000000000D+00  0.0000000000000D+00  0.0000000000000D+00
279  2.7800000000000D+00  0.0000000000000D+00  0.0000000000000D+00
280  2.7900000000000D+00  0.0000000000000D+00  0.0000000000000D+00
281  2.8000000000000D+00  0.0000000000000D+00  0.0000000000000D+00
282  2.8100000000000D+00  0.0000000000000D+00  0.0000000000000D+00
283  2.8200000000000D+00  0.0000000000000D+00  0.0000000000000D+00
284  2.8300000000000D+00  0.0000000000000D+00  0.0000000000000D+00
285  2.8400000000000D+00  0.0000000000000D+00  0.0000000000000D+00
286  2.8500000000000D+00  0.0000000000000D+00  0.0000000000000D+00
287  2.8600000000000D+00  0.0000000000000D+00  0.0000000000000D+00
288  2.8700000000000D+00  0.0000000000000D+00  0.0000000000000D+00
289  2.8800000000000D+00  0.0000000000000D+00  0.0000000000000D+00
290  2.8900000000000D+00  0.0000000000000D+00  0.0000000000000D+00
291  2.9000000000000D+00  0.0000000000000D+00  0.0000000000000D+00
292  2.9100000000000D+00  0.0000000000000D+00  0.0000000000000D+00
293  2.9200000000000D+00  0.0000000000000D+00  0.0000000000000D+00
294  2.9300000000000D+00  0.0000000000000D+00  0.0000000000000D+00
295  2.9400000000000D+00  0.0000000000000D+00  0.0000000000000D+00
296  2.9500000000000D+00  0.0000000000000D+00  0.0000000000000D+00
297  2.9600000000000D+00  0.0000000000000D+00  0.0000000000000D+00
298  2.9700000000000D+00  0.0000000000000D+00  0.0000000000000D+00
299  2.9800000000000D+00  0.0000000000000D+00  0.0000000000000D+00
300  2.9900000000000D+00  0.0000000000000D+00  0.0000000000000D+00
301  3.0000000000000D+00  0.0000000000000D+00  0.0000000000000D+00
302  3.0100000000000D+00  0.0000000000000D+00  0.0000000000000D+00
303  3.0200000000000D+00  0.0000000000000D+00  0.0000000000000D+00
304  3.0300000000000D+00  0.0000000000000D+00  0.0000000000000D+00
305  3.0400000000000D+00  0.0000000000000D+00  0.0000000000000D+00
306  3.0500000000000D+00  0.0000000000000D+00  0.0000000000000D+00
307  3.0600000000000D+00  0.0000000000000D+00  0.0000000000000D+00
308  3.0700000000000D+00  0.0000000000000D+00  0.0000000000000D+00
309  3.0800000000000D+00  0.0000000000000D+00  0.0000000000000D+00
310  3.0900000000000D+00  0.0000000000000D+00  0.0000000000000D+00
311  3.1000000000000D+00  0.0000000000000D+00  0.0000000000000D+00
312  3.1100000000000D+00  0.0000000000000D+00  0.0000000000000D+00
313  3.1200000000000D+00  0.0000000000000D+00  0.0000000000000D+00
314  3.1300000000000D+00  0.0000000000000D+00  0.0000000000000D+00
315  3.1400000000000D+00  0.0000000000000D+00  0.0000000000000D+00
316  3.1500000000000D+00  0.0000000000000D+00  0.0000000000000D+00
317  3.1600000000000D+00  0.0000000000000D+00  0.0000000000000D+00
318  3.1700000000000D+00  0.0000000000000D+00  0.0000000000000D+00
319  3.1800000000000D+00  0.0000000000000D+00  0.0000000000000D+00
320  3.1900000000000D+00  0.0000000000000D+00  0.0000000000000D+00
321  3.2000000000000D+00  0.0000000000000D+00  0.0000000000000D+00
322  3.2100000000000D+00  0.0000000000000D+00  0.0000000000000D+00
323  3.2200000000000D+00  0.0000000000000D+00  0.0000000000000D+00
324  3.2300000000000D+00  0.0000000000000D+00  0.0000000000000D+00
325  3.2400000000000D+00  0.0000000000000D+00  0.0000000000000D+00
326  3.2500000000000D+00  0.0000000000000D+00  0.0000000000000D+00
327  3.2600000000000D+00  0.0000000000000D+00  0.0000000000000D+00
328  3.2700000000000D+00  0.0000000000000D+00  0.0000000000000D+00
329  3.2800000000000D+00  0.0000000000000D+00  0.0000000000000D+00
330  3.2900000000000D+00  0.0000000000000D+00  0.0000000000000D+00
331  3.3000000000000D+00  0.0000000000000D+00  0.0000000000000D+00
332  3.3100000000000D+00  0.0000000000000D+00  0.0000000000000D+00
333  3.3200000000000D+00  0.0000000000000D+00  0.0000000000000D+00
334  3.3300000000000D+00  0.0000000000000D+00  0.0000000000000D+00
335  3.3400000000000D+00  0.0000000000000D+00  0.0000000000000D+00
336  3.3500000000000D+00  0.0000000000000D+00  0.0000000000000D+00
337  3.3600000000000D+00  0.0000000000000D+00  0.0000000000000D+00
338  3.3700000000000D+00  0.0000000000000D+00  0.0000000000000D+00
339  3.3800000000000D+00  0.0000000000000D+00  0.0000000000000D+00
340  3.3900000000000D+00  0.0000000000000D+00  0.0000000000000D+00
341  3.4000000000000D+00  0.0000000000000D+00  0.0000000000000D+00
342  3.4100000000000D+00  0.0000000000000D+00  0.0000000000000D+00
343  3.4200000000000D+00  0.0000000000000D+00  0.0000000000000D+00
344  3.4300000000000D+00  0.0000000000000D+00  0.0000000000000D+00
345  3.4400000000000D+00  0.0000000000000D+00  0.0000000000000D+00
346  3.4500000000000D+00  0.0000000000000D+00  0.0000000000000D+00
347  3.4600000000000D+00  0.0000000000000D+00  0.0000000000000D+00
348  3.4700000000000D+00  0.0000000000000D+00  0.0000000000000D+00
349  3.4800000000000D+00  0.0000000000000D+00  0.0000000000000D+00
350  3.4900000000000D+00  0.0000000000000D+00  0.0000000000000D+00
351  3.5000000000000D+00  0.0000000000000D+00  0.0000000000000D+00
352  3.5100000000000D+00  0.0000000000000D+00  0.0000000000000D+00
353  3.5200000000000D+00  0.0000000000000D+00  0.0000000000000D+00
354  3.5300000000000D+00  0.0000000000000D+00  0.0000000000000D+00
355  3.5400000000000D+00  0.0000000000000D+00  0.0000000000000D+00
356  3.5500000000000D+00  0.0000000000000D+00  0.0000000000000D+00
357  3.5600000000000D+00  0.0000000000000D+00  0.0000000000000D+00
358  3.5700000000000D+00  0.0000000000000D+00  0.0000000000000D+00
359  3.5800000000000D+00  0.0000000000000D+00  0.0000000000000D+00
360  3.5900000000000D+00  0.0000000000000D+00  0.0000000000000D+00
361  3.6000000000000D+00  0.0000000000000D+00  0.0000000000000D+00
362  3.6100000000000D+00  0.0000000000000D+00  0.0000000000000D+00
363  3.6200000000000D+00  0.0000000000000D+00  0.0000000000000D+00
364  3.6300000000000D+00  0.0000000000000D+00  0.0000000000000D+00
365  3.6400000000000D+00  0.0000000000000D+00  0.0000000000000D+00
366  3.6500000000000D+00  0.0000000000000D+00  0.0000000000000D+00
367  3.6600000000000D+00  0.0000000000000D+00  0.0000000000000D+00
368  3.6700000000000D+00  0.0000000000000D+00  0.0000000000000D+00
369  3.6800000000000D+00  0.0000000000000D+00  0.0000000000000D+00
370  3.6900000000000D+00  0.0000000000000D+00  0.0000000000000D+00
371  3.7000000000000D+00  0.0000000000000D+00  0.0000000000000D+00
372  3.7100000000000D+00  0.0000000000000D+00  0.0000000000000D+00
373  3.7200000000000D+00  0.0000000000000D+00  0.0000000000000D+00
374  3.7300000000000D+00  0.0000000000000D+00  0.0000000000000D+00
375  3.7400000000000D+00  0.0000000000000D+00  0.0000000000000D+00
376  3.7500000000000D+00  0.0000000000000D+00  0.0000000000000D+00
377  3.7600000000000D+00  0.0000000000000D+00  0.0000000000000D+00
378  3.7700000000000D+00  0.0000000000000D+00  0.0000000000000D+00
379  3.7800000000000D+00  0.0000000000000D+00  0.0000000000000D+00
380  3.7900000000000D+00  0.0000000000000D+00  0.0000000000000D+00
381  3.8000000000000D+00  0.0000000000000D+00  0.0000000000000D+00
382  3.8100000000000D+00  0.0000000000000D+00  0.0000000000000D+00
383  3.8200000000000D+00  0.0000000000000D+00  0.0000000000000D+00
384  3.8300000000000D+00  0.0000000000000D+00  0.0000000000000D+00
385  3.8400000000000D+00  0.0000000000000D+00  0.0000000000000D+00
386  3.8500000000000D+00  0.0000000000000D+00  0.0000000000000D+00
387  3.8600000000000D+00  0.0000000000000D+00  0.0000000000000D+00
388  3.8700000000000D+00  0.0000000000000D+00  0.0000000000000D+00
389  3.8800000000000D+00  0.0000000000000D+00  0.0000000000000D+00
390  3.8900000000000D+00  0.0000000000000D+00  0.0000000000000D+00
391  3.9000000000000D+00  0.0000000000000D+00  0.0000000000000D+00
392  3.9100000000000D+00  0.0000000000000D+00  0.0000000000000D+00
393  3.9200000000000D+00  0.0000000000000D+00  0.0000000000000D+00
394  3.9300000000000D+00  0.0000000000000D+00  0.0000000000000D+00
395  3.9400000000000D+00  0.0000000000000D+00  0.0000000000000D+00
396  3.9500000000000D+00  0.0000000000000D+00  0.0000000000000D+00
397  3.9600000000000D+00  0.0000000000000D+00  0.0000000000000D+00
398  3.9700000000000D+00  0.0000000000000D+00  0.0000000000000D+00
399  3.9800000000000D+00  0.0000000000000D+00  0.0000000000000D+00
400  3.9900000000000D+00  0.0000000000000D+00  0.0000000000000D+00
401  4.0000000000000D+00  0.0000000000000D+00  0.0000000000000D+00
402  4.0100000000000D+00  0.0000000000000D+00  0.0000000000000D+00
403  4.0200000000000D+00  0.0000000000000D+00  0.0000000000000D+00
404  4.0300000000000D+00  0.0000000000000D+00  0.0000000000000D+00
405  4.0400000000000D+00  0.0000000000000D+00  0.0000000000000D+00
406  4.0500000000000D+00  0.0000000000000D+00  0.0000000000000D+00
407  4.0600000000000D+00  0.0000000000000D+00  0.0000000000000D+00
408  4.0700000000000D+00  0.0000000000000D+00  0.0000000000000D+00
409  4.0800000000000D+00  0.0000000000000D+00  0.0000000000000D+00
410  4.0900000000000D+00  0.0000000000000D+00  0.0000000000000D+00
411  4.1000000000000D+00  0.0000000000000D+00  0.0000000000000D+00
412  4.1100000000000D+00  0.0000000000000D+00  0.0000000000000D+00
413  4.1200000000000D+00  0.0000000000000D+00  0.0000000000000D+00
414  4.1300000000000D+00  0.0000000000000D+00  0.0000000000000D+00
415  4.1400000000000D+00  0.0000000000000D+00  0.0000000000000D+00
416  4.1500000000000D+00  0.0000000000000D+00  0.0000000000000D+00
417  4.1600000000000D+00  0.0000000000000D+00  0.0000000000000D+00
418  4.1700000000000D+00  0.0000000000000D+00  0.0000000000000D+00
419  4.1800000000000D+00  0.0000000000000D+00  0.0000000000000D+00
420  4.1900000000000D+00  0.0000000000000D+00  0.0000000000000D+00
421  4.2000000000000D+00  0.0000000000000D+00  0.0000000000000D+00
422  4.2100000000000D+00  0.0000000000000D+00  0.0000000000000D+00
423  4.2200000000000D+00  0.0000000000000D+00  0.0000000000000D+00
424  4.2300000000000D+00  0.0000000000000D+00  0.0000000000000D+00
425  4.2400000000000D+00  0.0000000000000D+00  0.0000000000000D+00
426  4.2500000000000D+00  0.0000000000000D+00  0.0000000000000D+00
427  4.2600000000000D+00  0.0000000000000D+00  0.0000000000000D+00
428  4.2700000000000D+00  0.0000000000000D+00  0.0000000000000D+00
429  4.2800000000000D+00  0.0000000000000D+00  0.0000000000000D+00
430  4.2900000000000D+00  0.0000000000000D+00  0.0000000000000D+00
431  4.3000000000000D+00  0.0000000000000D+00  0.0000000000000D+00
432  4.3100000000000D+00  0.0000000000000D+00  0.0000000000000D+00
433  4.3200000000000D+00  0.0000000000000D+00  0.0000000000000D+00
434  4.3300000000000D+00  0.0000000000000D+00  0.0000000000000D+00
435  4.3400000000000D+00  0.0000000000000D+00  0.0000000000000D+00
436  4.3500000000000D+00  0.0000000000000D+00  0.0000000000000D+00
437  4.3600000000000D+00  0.0000000000000D+00  0.0000000000000D+00
438  4.3700000000000D+00  0.0000000000000D+00  0.0000000000000D+00
439  4.3800000000000D+00  0.0000000000000D+00  0.0000000000000D+00
440  4.3900000000000D+00  0.0000000000000D+00  0.0000000000000D+00
441  4.4000000000000D+00  0.0000000000000D+00  0.0000000000000D+00
442  4.4100000000000D+00  0.0000000000000D+00  0.0000000000000D+00
443  4.4200000000000D+00  0.0000000000000D+00  0.0000000000000D+00