<?xml version="1.0" encoding="UTF-8" ?>
<psml version="1.1" energy_unit="hartree" length_unit="bohr"
 uuid="70b65370-53a0-11e8-6ed6-1e2ffffad085"
 xmlns="http://esl.cecam.org/PSML/ns/1.1">
<provenance creator="ONCVPSP-3.3.0+psml-3.3.0-73 (fully-relativistic)"
 date="2018-05-09">
<annotation action="semilocal-pseudopotential-generation"
 action-cont="projectors-generation" />
<input-file name="oncvpsp-input">
<![CDATA[# atsym z nc nv iexc psfile
S 16 3 2 -116133 upf
# n l f
1 0 2.0
2 0 2.0
2 1 6.0
3 0 2.0
3 1 4.0
# lmax
2
# l rc ep ncon nbas qcut
0 1.45 0.0 4 9 6.3
1 1.45 0.0 4 9 7.6
2 1.60 0.15 4 9 7.0
# lloc lpopt rc5 dvloc0
4 5 1.4 0.0
# l nproj debl
0 2 2.0
1 2 2.0
2 2 1.0
# icmod fcfact
3 6 1.25
# epsh1 epsh2 depsh
-12.0 12.0 0.02
# rlmax drl
6.0 0.01
 0
]]>
</input-file>
</provenance>
<pseudo-atom-spec atomic-label="S" atomic-number="16" z-pseudo="6"
 flavor="Hamann&apos;s oncvpsp" relativity="dirac" spin-dft="no"
 core-corrections="yes">
<annotation pseudo-energy="-10.0947359241" />
<exchange-correlation>
<annotation oncvpsp-xc-code="-116133" oncvpsp-xc-type="libxc-interface" />
<libxc-info number-of-functionals="2">
<functional name="Perdew, Burke &amp; Ernzerhof SOL (GGA)" type="exchange"
 id="116" />
<functional name="Perdew, Burke &amp; Ernzerhof SOL (GGA)" type="correlation"
 id="133" />
</libxc-info>
</exchange-correlation>
<valence-configuration total-valence-charge="6">
<shell n="3" l="s" occupation="2" />
<shell n="3" l="p" occupation="4" />
</valence-configuration>
</pseudo-atom-spec>
<grid npts="457">
<annotation type="sampled from oncvpsp log grid"
 recipe="r(i:1..N) = r1*exp(a*(i-1)) + r=0; resampled"
 recipe-cont="r1: scale; a: step" scale="0.312500000000E-04"
 step="0.119285708653E-01" delta="0.500000000000E-02" rmax="44.0674949757" />
<grid-data>
  0.000000000000E+00  5.032089401363E-03  1.005120367503E-02  1.507840828192E-02
  2.031740843734E-02  2.548578698111E-02  3.084510470868E-02  3.601910451176E-02
  4.106941804742E-02  4.627257563705E-02  5.151672975532E-02  5.667511193686E-02
  6.235000413091E-02  6.777976739691E-02  7.280867859944E-02  7.821070922764E-02
  8.401354282973E-02  8.917679538664E-02  9.465736793826E-02  1.004747621413E-01
  1.066496781734E-01  1.118617474217E-01  1.173285353557E-01  1.230624903151E-01
  1.290766690016E-01  1.353847662102E-01  1.420011460131E-01  1.471747771426E-01
  1.525369029415E-01  1.580943909733E-01  1.638543590123E-01  1.698241841602E-01
  1.760115122937E-01  1.824242678575E-01  1.890706640132E-01  1.959592131586E-01
  2.030987378299E-01  2.104983820012E-01  2.155806549362E-01  2.207856342690E-01
  2.261162826228E-01  2.315756341504E-01  2.371667962613E-01  2.428929513903E-01
  2.487573588086E-01  2.547633564797E-01  2.609143629586E-01  2.672138793378E-01
  2.736654912406E-01  2.802728708611E-01  2.870397790552E-01  2.939700674807E-01
  3.010676807899E-01  3.083366588749E-01  3.157811391668E-01  3.234053589908E-01
  3.312136579783E-01  3.392104805365E-01  3.474003783786E-01  3.557880131142E-01
  3.643781589028E-01  3.731757051713E-01  3.821856593970E-01  3.914131499575E-01
  4.008634290501E-01  4.105418756810E-01  4.204539987275E-01  4.254994467122E-01
  4.306054400728E-01  4.357727053536E-01  4.410019778179E-01  4.462940015517E-01
  4.516495295703E-01  4.570693239252E-01  4.625541558123E-01  4.681048056820E-01
  4.737220633502E-01  4.794067281104E-01  4.851596088477E-01  4.909815241539E-01
  4.968733024437E-01  5.028357820731E-01  5.088698114579E-01  5.149762491954E-01
  5.211559641858E-01  5.274098357560E-01  5.337387537851E-01  5.401436188305E-01
  5.466253422565E-01  5.531848463636E-01  5.598230645199E-01  5.665409412942E-01
  5.733394325897E-01  5.802195057808E-01  5.871821398501E-01  5.942283255283E-01
  6.013590654347E-01  6.085753742199E-01  6.158782787105E-01  6.232688180550E-01
  6.307480438717E-01  6.383170203982E-01  6.459768246429E-01  6.537285465387E-01
  6.615732890971E-01  6.695121685663E-01  6.775463145891E-01  6.856768703642E-01
  6.939049928085E-01  7.022318527222E-01  7.106586349549E-01  7.191865385744E-01
  7.278167770372E-01  7.365505783617E-01  7.453891853020E-01  7.543338555257E-01
  7.633858617920E-01  7.725464921335E-01  7.818170500391E-01  7.911988546395E-01
  8.006932408952E-01  8.103015597860E-01  8.200251785034E-01  8.298654806454E-01
  8.398238664132E-01  8.499017528101E-01  8.601005738439E-01  8.704217807300E-01
  8.808668420987E-01  8.914372442039E-01  9.021344911344E-01  9.129601050280E-01
  9.239156262883E-01  9.350026138038E-01  9.462226451694E-01  9.575773169115E-01
  9.690682447144E-01  9.806970636510E-01  9.924654284148E-01  1.004375013556E+00
  1.016427513718E+00  1.028624643883E+00  1.040968139610E+00  1.053459757285E+00
  1.066101274372E+00  1.078894489665E+00  1.091841223541E+00  1.104943318223E+00
  1.118202638042E+00  1.131621069699E+00  1.145200522535E+00  1.158942928805E+00
  1.172850243951E+00  1.186924446878E+00  1.201167540241E+00  1.215581550724E+00
  1.230168529332E+00  1.244930551684E+00  1.259869718305E+00  1.274988154924E+00
  1.290288012783E+00  1.305771468937E+00  1.321440726564E+00  1.337298015283E+00
  1.353345591466E+00  1.369585738564E+00  1.386020767427E+00  1.402653016636E+00
  1.419484852835E+00  1.436518671069E+00  1.453756895122E+00  1.471201977864E+00
  1.488856401598E+00  1.506722678417E+00  1.524803350558E+00  1.543100990765E+00
  1.561618202654E+00  1.580357621086E+00  1.599321912539E+00  1.618513775489E+00
  1.637935940795E+00  1.657591172085E+00  1.677482266150E+00  1.697612053344E+00
  1.717983397984E+00  1.738599198760E+00  1.759462389145E+00  1.780575937814E+00
  1.801942849068E+00  1.823566163257E+00  1.845448957216E+00  1.867594344703E+00
  1.890005476839E+00  1.912685542561E+00  1.935637769072E+00  1.958865422301E+00
  1.982371807368E+00  2.006160269057E+00  2.030234192286E+00  2.054597002593E+00
  2.079252166624E+00  2.104203192624E+00  2.129453630935E+00  2.155007074506E+00
  2.180867159400E+00  2.207037565313E+00  2.233522016097E+00  2.260324280290E+00
  2.287448171654E+00  2.314897549713E+00  2.342676320310E+00  2.370788436154E+00
  2.399237897388E+00  2.428028752156E+00  2.457165097182E+00  2.486651078348E+00
  2.516490891288E+00  2.546688781984E+00  2.577249047368E+00  2.608176035936E+00
  2.639474148367E+00  2.671147838148E+00  2.703201612206E+00  2.735640031552E+00
  2.768467711931E+00  2.801689324474E+00  2.835309596367E+00  2.869333311524E+00
  2.903765311262E+00  2.938610494997E+00  2.973873820937E+00  3.009560306789E+00
  3.045675030470E+00  3.082223130836E+00  3.119209808406E+00  3.156640326107E+00
  3.194520010020E+00  3.232854250140E+00  3.271648501142E+00  3.310908283155E+00
  3.350639182553E+00  3.390846852744E+00  3.431537014977E+00  3.472715459157E+00
  3.514388044666E+00  3.556560701202E+00  3.599239429617E+00  3.642430302772E+00
  3.686139466406E+00  3.730373140002E+00  3.775137617682E+00  3.820439269095E+00
  3.866284540324E+00  3.912679954808E+00  3.959632114265E+00  4.007147699637E+00
  4.055233472032E+00  4.103896273697E+00  4.153143028981E+00  4.202980745329E+00
  4.253416514273E+00  4.304457512444E+00  4.356111002593E+00  4.408384334624E+00
  4.461284946640E+00  4.514820366000E+00  4.568998210392E+00  4.623826188916E+00
  4.679312103183E+00  4.735463848421E+00  4.792289414603E+00  4.849796887578E+00
  4.907994450229E+00  4.966890383631E+00  5.026493068235E+00  5.086810985054E+00
  5.147852716874E+00  5.209626949477E+00  5.272142472871E+00  5.335408182545E+00
  5.399433080736E+00  5.464226277704E+00  5.529796993037E+00  5.596154556953E+00
  5.663308411637E+00  5.731268112576E+00  5.800043329927E+00  5.869643849887E+00
  5.940079576085E+00  6.011360530998E+00  6.083496857370E+00  6.156498819659E+00
  6.230376805494E+00  6.305141327160E+00  6.380803023086E+00  6.457372659363E+00
  6.534861131276E+00  6.613279464851E+00  6.692638818429E+00  6.772950484250E+00
  6.854225890061E+00  6.936476600742E+00  7.019714319951E+00  7.103950891790E+00
  7.189198302492E+00  7.275468682122E+00  7.362774306307E+00  7.451127597983E+00
  7.540541129159E+00  7.631027622709E+00  7.722599954181E+00  7.815271153631E+00
  7.909054407475E+00  8.003963060365E+00  8.100010617089E+00  8.197210744494E+00
  8.295577273428E+00  8.395124200709E+00  8.495865691118E+00  8.597816079411E+00
  8.700989872364E+00  8.805401750832E+00  8.911066571842E+00  9.017999370705E+00
  9.126215363153E+00  9.235729947511E+00  9.346558706881E+00  9.458717411364E+00
  9.572222020300E+00  9.687088684543E+00  9.803333748758E+00  9.920973753743E+00
  1.004002543879E+01  1.016050574405E+01  1.028243181298E+01  1.040582099474E+01
  1.053069084667E+01  1.065705913683E+01  1.078494384648E+01  1.091436317263E+01
  1.104533553071E+01  1.117787955707E+01  1.131201411176E+01  1.144775828110E+01
  1.158513138047E+01  1.172415295704E+01  1.186484279252E+01  1.200722090603E+01
  1.215130755691E+01  1.229712324759E+01  1.244468872656E+01  1.259402499128E+01
  1.274515329117E+01  1.289809513067E+01  1.305287227224E+01  1.320950673950E+01
  1.336802082038E+01  1.352843707022E+01  1.369077831507E+01  1.385506765485E+01
  1.402132846670E+01  1.418958440830E+01  1.435985942120E+01  1.453217773426E+01
  1.470656386707E+01  1.488304263347E+01  1.506163914508E+01  1.524237881482E+01
  1.542528736059E+01  1.561039080892E+01  1.579771549863E+01  1.598728808461E+01
  1.617913554163E+01  1.637328516813E+01  1.656976459015E+01  1.676860176523E+01
  1.696982498641E+01  1.717346288625E+01  1.737954444088E+01  1.758809897417E+01
  1.779915616186E+01  1.801274603580E+01  1.822889898823E+01  1.844764577609E+01
  1.866901752541E+01  1.889304573571E+01  1.911976228454E+01  1.934919943195E+01
  1.958138982514E+01  1.981636650304E+01  2.005416290108E+01  2.029481285589E+01
  2.053835061016E+01  2.078481081748E+01  2.103422854729E+01  2.128663928986E+01
  2.154207896134E+01  2.180058390887E+01  2.206219091578E+01  2.232693720677E+01
  2.259486045325E+01  2.286599877869E+01  2.314039076403E+01  2.341807545320E+01
  2.369909235864E+01  2.398348146694E+01  2.427128324455E+01  2.456253864348E+01
  2.485728910720E+01  2.515557657649E+01  2.545744349541E+01  2.576293281735E+01
  2.607208801116E+01  2.638495306729E+01  2.670157250410E+01  2.702199137415E+01
  2.734625527064E+01  2.767441033389E+01  2.800650325790E+01  2.834258129699E+01
  2.868269227255E+01  2.902688457982E+01  2.937520719478E+01  2.972770968112E+01
  3.008444219729E+01  3.044545550366E+01  3.081080096970E+01  3.118053058134E+01
  3.155469694832E+01  3.193335331170E+01  3.231655355144E+01  3.270435219405E+01
  3.309680442038E+01  3.349396607343E+01  3.389589366631E+01  3.430264439030E+01
  3.471427612299E+01  3.513084743646E+01  3.555241760570E+01  3.597904661697E+01
  3.641079517637E+01  3.684772471849E+01  3.728989741511E+01  3.773737618409E+01
  3.819022469830E+01  3.864850739468E+01  3.911228948342E+01  3.958163695722E+01
  4.005661660071E+01  4.053729599991E+01  4.102374355191E+01  4.151602847454E+01
  4.201422081623E+01  4.251839146603E+01  4.302861216362E+01  4.354495550958E+01
  4.406749497570E+01
</grid-data>
</grid>
<valence-charge total-charge="6" is-unscreening-charge="yes"
 rescaled-to-z-pseudo="no">
<radfunc>
<data npts="457">
  1.419128918565E-02  1.425239776174E-02  1.443512069171E-02  1.474012848677E-02
  1.518804540185E-02  1.576020283343E-02  1.649043866056E-02  1.732803884095E-02
  1.827163910669E-02  1.937444668927E-02  2.062062731360E-02  2.197890384883E-02
  2.362569750706E-02  2.535173301819E-02  2.708226036263E-02  2.908335344857E-02
  3.139802624894E-02  3.360234557208E-02  3.609236314477E-02  3.890594856224E-02
  4.208619537831E-02  4.492715000751E-02  4.806230375305E-02  5.152305514156E-02
  5.534431981635E-02  5.956494985142E-02  6.422820551733E-02  6.804491295491E-02
  7.215994297479E-02  7.659754847205E-02  8.138405835242E-02  8.654806263719E-02
  9.212061345585E-02  9.813544284781E-02  1.046291981954E-01  1.116416959530E-01
  1.192161941012E-01  1.273996834264E-01  1.332186969319E-01  1.393471507922E-01
  1.458021387716E-01  1.526017085269E-01  1.597649087836E-01  1.673118373092E-01
  1.752636893668E-01  1.836428062592E-01  1.924727234866E-01  2.017782179437E-01
  2.115853534677E-01  2.219215239211E-01  2.328154928471E-01  2.442974285727E-01
  2.563989334503E-01  2.691530657240E-01  2.825943522831E-01  2.967587903139E-01
  3.116838355926E-01  3.274083748695E-01  3.439726794819E-01  3.614183369999E-01
  3.797881573688E-01  3.991260496517E-01  4.194768651230E-01  4.408862021099E-01
  4.634001676491E-01  4.870650907222E-01  5.119271815825E-01  5.248214759873E-01
  5.380321315022E-01  5.515647020746E-01  5.654246471719E-01  5.796173132547E-01
  5.941479140101E-01  6.090215093021E-01  6.242429828037E-01  6.398170182726E-01
  6.557480744390E-01  6.720403584758E-01  6.886977980258E-01  7.057240117662E-01
  7.231222784930E-01  7.408955047180E-01  7.590461907735E-01  7.775763954279E-01
  7.964876990262E-01  8.157811651713E-01  8.354573009788E-01  8.555160159397E-01
  8.759565794423E-01  8.967775770122E-01  9.179768653393E-01  9.395515261782E-01
  9.614978192148E-01  9.838111340094E-01  1.006485941139E+00  1.029515742675E+00
  1.052893022149E+00  1.076609194173E+00  1.100654553895E+00  1.125018226494E+00
  1.149688116920E+00  1.174650860121E+00  1.199891771999E+00  1.225394801370E+00
  1.251142483203E+00  1.277115893458E+00  1.303294605833E+00  1.329656650780E+00
  1.356178477154E+00  1.382834916883E+00  1.409599153081E+00  1.436442692044E+00
  1.463335339605E+00  1.490245182338E+00  1.517138574145E+00  1.543980128797E+00
  1.570732719003E+00  1.597357482654E+00  1.623813836896E+00  1.650059500726E+00
  1.676050526831E+00  1.701741343425E+00  1.727084806866E+00  1.752032265814E+00
  1.776533637755E+00  1.800537498646E+00  1.823991186466E+00  1.846840919378E+00
  1.869031929171E+00  1.890508610554E+00  1.911214686757E+00  1.931093391761E+00
  1.950087669292E+00  1.968140388512E+00  1.985194576104E+00  2.001193664154E+00
  2.016081752965E+00  2.029803887576E+00  2.042306346439E+00  2.053536940349E+00
  2.063445319366E+00  2.071983285123E+00  2.079105105625E+00  2.084767829351E+00
  2.088931595261E+00  2.091559935194E+00  2.092620065054E+00  2.092083161265E+00
  2.089924619118E+00  2.086124289894E+00  2.080666694080E+00  2.073541208451E+00
  2.064742225430E+00  2.054269283802E+00  2.042127170602E+00  2.028325994743E+00
  2.012881233671E+00  1.995813754997E+00  1.977149815567E+00  1.956921040778E+00
  1.935164387080E+00  1.911922090452E+00  1.887241603219E+00  1.861175520867E+00
  1.833781499524E+00  1.805122163583E+00  1.775265001618E+00  1.744282247377E+00
  1.712250741404E+00  1.679251767871E+00  1.645370860618E+00  1.610697236813E+00
  1.575321792671E+00  1.539334307048E+00  1.502822749799E+00  1.465873517454E+00
  1.428570990943E+00  1.390997367081E+00  1.353232464665E+00  1.315353551069E+00
  1.277435185671E+00  1.239549080229E+00  1.201763976305E+00  1.164145539686E+00
  1.126756271680E+00  1.089655437042E+00  1.052899008208E+00  1.016539625422E+00
  9.806265722609E-01  9.452057659893E-01  9.103197621172E-01  8.760077724656E-01
  8.423056960059E-01  8.092461616914E-01  7.768585824701E-01  7.451692196402E-01
  7.142012566928E-01  6.839748817765E-01  6.545073779129E-01  6.258132200968E-01
  5.979041784220E-01  5.707894263884E-01  5.444756535656E-01  5.189671818251E-01
  4.942660842999E-01  4.703723064636E-01  4.472837884881E-01  4.249965882744E-01
  4.035050045121E-01  3.828016991758E-01  3.628778189087E-01  3.437231147872E-01
  3.253260600011E-01  3.076739650301E-01  2.907530899361E-01  2.745487534382E-01
  2.590454384731E-01  2.442268939878E-01  2.300762327526E-01  2.165760250014E-01
  2.037083877906E-01  1.914550699351E-01  1.797975324648E-01  1.687170245563E-01
  1.581946549240E-01  1.482114586833E-01  1.387484597237E-01  1.297867286523E-01
  1.213074363879E-01  1.132919035060E-01  1.057216454506E-01  9.857841374259E-02
  9.184423332805E-02  8.550143621701E-02  7.953269157338E-02  7.392103242053E-02
  6.864987913062E-02  6.370305986706E-02  5.906482814894E-02  5.471987770332E-02
  5.065335476808E-02  4.685086800241E-02  4.329849615619E-02  3.998279364280E-02
  3.689079415287E-02  3.401001243936E-02  3.132844439774E-02  2.883456555847E-02
  2.651732810334E-02  2.436615651228E-02  2.237094194299E-02  2.052203544243E-02
  1.881024008644E-02  1.722680214182E-02  1.576340134363E-02  1.441214037917E-02
  1.316553366917E-02  1.201649553553E-02  1.095832784382E-02  9.984707207256E-03
  9.089671836966E-03  8.267608121039E-03  7.513237012134E-03  6.821600300046E-03
  6.188046841860E-03  5.608218818143E-03  5.078038078941E-03  4.593692638466E-03
  4.151623372109E-03  3.748510964089E-03  3.381263148569E-03  3.047002281610E-03
  2.743053275911E-03  2.466931925010E-03  2.216333638497E-03  1.989122604940E-03
  1.783321394614E-03  1.597101009855E-03  1.428771386910E-03  1.276772349574E-03
  1.139665011678E-03  1.016123622676E-03  9.049278480759E-04  8.049554744040E-04
  7.151755266149E-04  6.346417844790E-04  5.624866833897E-04  4.979155842435E-04
  4.402013965318E-04  3.886795384959E-04  3.427432181318E-04  3.018390189322E-04
  2.654627745139E-04  2.331557166492E-04  2.045008816917E-04  1.791197609202E-04
  1.566691809098E-04  1.368384006468E-04  1.193464127263E-04  1.039394365922E-04
  9.038859238579E-05  7.848774456007E-05  6.805150497971E-05  5.891338576609E-05
  5.092409265379E-05  4.394995010496E-05  3.787144987887E-05  3.258191517843E-05
  2.798627289527E-05  2.399992685207E-05  2.054772529839E-05  1.756301625562E-05
  1.498678463059E-05  1.276686532768E-05  1.085722688737E-05  9.217320466615E-06
  7.811489254438E-06  6.608433685261E-06  5.580728073392E-06  4.704384545453E-06
  3.958460393072E-06  3.324705206365E-06  2.787244379250E-06  2.332295800538E-06
  1.947916759756E-06  1.623778303557E-06  1.350964477208E-06  1.121794075828E-06
  9.296627114814E-07  7.689031749852E-07  6.346622350854E-07  5.227921725672E-07
  4.297554928805E-07  3.525413980191E-07  2.885927268457E-07  2.357421929387E-07
  1.921568605707E-07  1.562899028597E-07  1.268387817324E-07  1.027090774235E-07
  8.298327613431E-08  6.689389853522E-08  5.380041939207E-08  4.316949008883E-08
  3.455803159182E-08  2.759881582556E-08  2.198819888080E-08  1.747571031657E-08
  1.385523940452E-08  1.095759183967E-08  8.644219536058E-09  6.801951951844E-09
  5.338580245331E-09  4.179165729954E-09  3.262961836083E-09  2.540854345111E-09
  1.973238263880E-09  1.528261564589E-09  1.180376319581E-09  9.091466878355E-10
  6.982709209705E-10  5.347811963841E-10  4.083907850618E-10  3.109629394338E-10
  2.360800481041E-10  1.786951433929E-10  1.348508480639E-10  1.014533832911E-10
  7.609139603239E-11  5.689115772005E-11  4.240118756584E-11  3.150060637941E-11
  2.332656841849E-11  1.721698210407E-11  1.266544358691E-11  9.285894284491E-12
  6.784995254197E-12  4.940605193871E-12  3.585069866233E-12  2.592291416555E-12
  1.867756990210E-12  1.340876142325E-12  9.591131866342E-13  6.835100284701E-13
  4.852822846512E-13  3.432408345292E-13  2.418458450500E-13  1.697436127895E-13
  1.186705879702E-13  8.263557460890E-14  5.731186257417E-14  3.958717063934E-14
  2.723175107927E-14  1.865461431101E-14  1.272520392265E-14  8.643484316923E-15
  5.845697121573E-15  3.936265872504E-15  2.638823014254E-15  1.761126707587E-15
  1.170043270445E-15  7.737851403658E-16  5.093564587062E-16  3.337195748673E-16
  2.176080866817E-16  1.412135715379E-16  9.119266117459E-17  5.860013484330E-17
  3.746838047067E-17  2.383577756113E-17  0.000000000000E+00  0.000000000000E+00
  0.000000000000E+00  0.000000000000E+00  0.000000000000E+00  0.000000000000E+00
  0.000000000000E+00  0.000000000000E+00  0.000000000000E+00  0.000000000000E+00
  0.000000000000E+00  0.000000000000E+00  0.000000000000E+00  0.000000000000E+00
  0.000000000000E+00  0.000000000000E+00  0.000000000000E+00  0.000000000000E+00
  0.000000000000E+00  0.000000000000E+00  0.000000000000E+00  0.000000000000E+00
  0.000000000000E+00  0.000000000000E+00  0.000000000000E+00  0.000000000000E+00
  0.000000000000E+00  0.000000000000E+00  0.000000000000E+00  0.000000000000E+00
  0.000000000000E+00  0.000000000000E+00  0.000000000000E+00  0.000000000000E+00
  0.000000000000E+00  0.000000000000E+00  0.000000000000E+00  0.000000000000E+00
  0.000000000000E+00  0.000000000000E+00  0.000000000000E+00  0.000000000000E+00
  0.000000000000E+00  0.000000000000E+00  0.000000000000E+00  0.000000000000E+00
  0.000000000000E+00
</data>
</radfunc>
</valence-charge>
<pseudocore-charge matching-radius="0.912960105028"
 number-of-continuous-derivatives="4">
<annotation model-charge-form="Teter function with specified parameters" />
<radfunc>
<data npts="290">
  1.274168918947E+01  1.274090647715E+01  1.273856667634E+01  1.273466304937E+01
  1.272893505600E+01  1.272162629138E+01  1.271231126096E+01  1.270164459666E+01
  1.268965088019E+01  1.267566404530E+01  1.265989814204E+01  1.264276126898E+01
  1.262204979632E+01  1.260041812074E+01  1.257880794001E+01  1.255391519642E+01
  1.252524891631E+01  1.249807476185E+01  1.246752400539E+01  1.243318649830E+01
  1.239460480467E+01  1.236034313645E+01  1.232275328396E+01  1.228152320562E+01
  1.223631396625E+01  1.218675792365E+01  1.213245690694E+01  1.208835954883E+01
  1.204115757407E+01  1.199064570124E+01  1.193660711942E+01  1.187881316595E+01
  1.181702305382E+01  1.175098366183E+01  1.168042940270E+01  1.160508218622E+01
  1.152465149726E+01  1.143883461091E+01  1.137847615575E+01  1.131548825098E+01
  1.124977275261E+01  1.118122950562E+01  1.110975648728E+01  1.103524997635E+01
  1.095760475054E+01  1.087671431471E+01  1.079247116258E+01  1.070476707463E+01
  1.061349345520E+01  1.051854171165E+01  1.041980367879E+01  1.031717209160E+01
  1.021054110950E+01  1.009980689521E+01  9.984868251441E+00  9.865627318298E+00
  9.741990334386E+00  9.613868464133E+00  9.481178693746E+00  9.343844797716E+00
  9.201798377332E+00  9.054979972044E+00  8.903340243777E+00  8.746841233428E+00
  8.585457687709E+00  8.419178453312E+00  8.248007933941E+00  8.160594443924E+00
  8.071967604167E+00  7.982133022744E+00  7.891097572235E+00  7.798869440519E+00
  7.705458181893E+00  7.610874768373E+00  7.515131641079E+00  7.418242761532E+00
  7.320223662737E+00  7.221091499863E+00  7.120865100361E+00  7.019565013321E+00
  6.917213557864E+00  6.813834870361E+00  6.709454950243E+00  6.604101704153E+00
  6.497804988198E+00  6.390596648017E+00  6.282510556384E+00  6.173582648046E+00
  6.063850951491E+00  5.953355617306E+00  5.842138942805E+00  5.730245392561E+00
  5.617721614488E+00  5.504616451103E+00  5.390980945580E+00  5.276868342210E+00
  5.162334080865E+00  5.047435785077E+00  4.932233243305E+00  4.816788383006E+00
  4.701165237085E+00  4.585429902329E+00  4.469650489434E+00  4.353897064219E+00
  4.238241579679E+00  4.122757798486E+00  4.007521205629E+00  3.892608910851E+00
  3.778099540620E+00  3.664073119361E+00  3.550610939740E+00  3.437795421830E+00
  3.325709961028E+00  3.214438764657E+00  3.104066677229E+00  2.994678994449E+00
  2.886361266043E+00  2.779199087658E+00  2.673277882073E+00  2.568682670132E+00
  2.465497831830E+00  2.363806858147E+00  2.263692094276E+00  2.165234475036E+00
  2.068513253357E+00  1.973605722834E+00  1.880586935491E+00  1.789529415974E+00
  1.700502873566E+00  1.613573913477E+00  1.528805749035E+00  1.446257916472E+00
  1.365985994148E+00  1.288041328123E+00  1.212470766107E+00  1.139316401895E+00
  1.068615332446E+00  1.000399429863E+00  9.346951305156E-01  8.715232436276E-01
  8.108987815934E-01  7.528308143098E-01  6.973223497315E-01  6.443702427930E-01
  5.939651347317E-01  5.460914247086E-01  5.007272754526E-01  4.578446544548E-01
  4.174094119979E-01  3.793813970393E-01  3.437146116580E-01  3.103574044433E-01
  2.792527028300E-01  2.503382839937E-01  2.235470834928E-01  1.988075404053E-01
  1.760439772446E-01  1.551770124674E-01  1.361240029126E-01  1.187995130327E-01
  1.031158073169E-01  8.898336185857E-02  7.631139060167E-02  6.500838142173E-02
  5.498263686059E-02  4.614281406005E-02  3.839845822802E-02  3.166052383752E-02
  2.584187770886E-02  2.085777816858E-02  1.662632461988E-02  1.306887210425E-02
  1.011040578525E-02  7.679870743463E-03  5.710453035230E-03  4.139808631580E-03
  2.910237611467E-03  1.968801823380E-03  1.267385139098E-03  7.626963858309E-04
  4.162160390577E-04  1.940887662838E-04  6.696490757614E-05  9.794936681616E-06
  1.581840179217E-06  2.509715485760E-05  6.656708937318E-05  1.153357009719E-04
  1.635124800633E-04  2.056118968538E-04  2.381924719174E-04  2.595027389921E-04
  2.691410723419E-04  2.677357586709E-04  2.566509181764E-04  2.377229417394E-04
  2.130310395873E-04  1.847043257694E-04  1.547666328800E-04  1.250190073337E-04
  9.695862443497E-05  7.173173231622E-05  5.011723070892E-05  3.253665655430E-05
  1.908571932554E-05  9.582131611437E-06  3.624331376027E-06  6.557955996761E-07
  2.999192080102E-08  1.071583394160E-06  3.130256897719E-06  5.624442249957E-06
  8.073172118801E-06  1.011534196994E-05  1.151660228039E-05  1.216499184009E-05
  1.205714739694E-05  1.127745787495E-05  9.972841638758E-06  8.325900193376E-06
  6.529046827432E-06  4.761847714129E-06  3.173286172848E-06  1.870021974253E-06
  9.110295639478E-07  3.083281351736E-07  3.292608051363E-08  2.464697764574E-08
  2.042237889630E-07  4.859633170165E-07  7.893936867908E-07  1.048591653012E-06
  1.218302471825E-06  1.276456893632E-06  1.223193470856E-06  1.076945655719E-06
  8.684960169322E-07  6.340938190357E-07  4.087578442811E-07  2.207483693707E-07
  8.791880659322E-08  1.629631637489E-08  0.000000000000E+00  0.000000000000E+00
  0.000000000000E+00  0.000000000000E+00  0.000000000000E+00  0.000000000000E+00
  0.000000000000E+00  0.000000000000E+00  0.000000000000E+00  0.000000000000E+00
  0.000000000000E+00  0.000000000000E+00  0.000000000000E+00  0.000000000000E+00
  0.000000000000E+00  0.000000000000E+00  0.000000000000E+00  0.000000000000E+00
  0.000000000000E+00  0.000000000000E+00  0.000000000000E+00  0.000000000000E+00
  0.000000000000E+00  0.000000000000E+00  0.000000000000E+00  0.000000000000E+00
  0.000000000000E+00  0.000000000000E+00  0.000000000000E+00  0.000000000000E+00
  0.000000000000E+00  0.000000000000E+00  0.000000000000E+00  0.000000000000E+00
  0.000000000000E+00  0.000000000000E+00  0.000000000000E+00  0.000000000000E+00
  0.000000000000E+00  0.000000000000E+00  0.000000000000E+00  0.000000000000E+00
  0.000000000000E+00  0.000000000000E+00  0.000000000000E+00  0.000000000000E+00
  0.000000000000E+00  0.000000000000E+00
</data>
</radfunc>
</pseudocore-charge>
<semilocal-potentials set="lj">
<slps n="3" l="s" j="0.5" rc="1.45375689512" eref="-0.631843584240">
<radfunc>
<data npts="290">
  5.125408709366E+01  5.122379941027E+01  5.113342698183E+01  5.098321264377E+01
  5.076405253763E+01  5.048655989745E+01  5.013634351621E+01  4.973998150364E+01
  4.930015551064E+01  4.879489515950E+01  4.823501812968E+01  4.763775194768E+01
  4.693114185565E+01  4.621036773990E+01  4.550728247830E+01  4.471766245002E+01
  4.383415931043E+01  4.302109484731E+01  4.213416836031E+01  4.117005136279E+01
  4.012601182276E+01  3.923188634284E+01  3.828475941111E+01  3.728450190995E+01
  3.623148856181E+01  3.512664974401E+01  3.397151594801E+01  3.307343732585E+01
  3.214942706219E+01  3.120085001937E+01  3.022927985752E+01  2.923649466552E+01
  2.822446912130E+01  2.719536308775E+01  2.615150664362E+01  2.509538164956E+01
  2.402960005475E+01  2.295687925394E+01  2.223925516064E+01  2.152063018034E+01
  2.080185170588E+01  2.008376870427E+01  1.936722754757E+01  1.865306783078E+01
  1.794211821784E+01  1.723519235692E+01  1.653308490614E+01  1.583656770994E+01
  1.514638616505E+01  1.446325581347E+01  1.378785919770E+01  1.312084301135E+01
  1.246281557523E+01  1.181434466688E+01  1.117595572793E+01  1.054813047112E+01
  9.931305905438E+00  9.325873794697E+00  8.732180561677E+00  8.150527646408E+00
  7.581172323656E+00  7.024328980818E+00  6.480170853166E+00  5.948832208705E+00
  5.430410969568E+00  4.924971750795E+00  4.432549290325E+00  4.191222955860E+00
  3.953152236071E+00  3.718334808340E+00  3.486767246747E+00  3.258445163490E+00
  3.033363352816E+00  2.811515936818E+00  2.592896512416E+00  2.377498298793E+00
  2.165314284469E+00  1.956337373186E+00  1.750560527675E+00  1.547976910356E+00
  1.348580019942E+00  1.152363822889E+00  9.593228785586E-01  7.694524569378E-01
  5.827486477102E-01  3.992084594391E-01  2.188299076018E-01  4.161209019410E-02
 -1.324447503765E-01 -3.033391803836E-01 -4.710685441139E-01 -6.356289506539E-01
 -7.970152792958E-01 -9.552212046149E-01 -1.110239242226E+00 -1.262060816081E+00
 -1.410676347979E+00 -1.556075369842E+00 -1.698246659089E+00 -1.837178397173E+00
 -1.972858351110E+00 -2.105274077516E+00 -2.234413148342E+00 -2.360263397116E+00
 -2.482813184127E+00 -2.602051678555E+00 -2.717969155085E+00 -2.830557302101E+00
 -2.939809538040E+00 -3.045721332009E+00 -3.148290524223E+00 -3.247517641398E+00
 -3.343406201654E+00 -3.435963003099E+00 -3.525198389817E+00 -3.611126488603E+00
 -3.693765409517E+00 -3.773137403084E+00 -3.849268966864E+00 -3.922190894119E+00
 -3.991938257413E+00 -4.058550320301E+00 -4.122070370701E+00 -4.182545470199E+00
 -4.240026114416E+00 -4.294565800677E+00 -4.346220500600E+00 -4.395048036890E+00
 -4.441107365650E+00 -4.484457767860E+00 -4.525157956445E+00 -4.563265108467E+00
 -4.598833835594E+00 -4.631915109906E+00 -4.662555166435E+00 -4.690794408381E+00
 -4.716666345662E+00 -4.740196602042E+00 -4.761402030385E+00 -4.780289979268E+00
 -4.796857756834E+00 -4.811092339124E+00 -4.822970369720E+00 -4.832458495035E+00
 -4.839514074715E+00 -4.844086299128E+00 -4.846117735665E+00 -4.845546312592E+00
 -4.842307733512E+00 -4.836338297368E+00 -4.827578078649E+00 -4.815974400535E+00
 -4.801485510597E+00 -4.784084345182E+00 -4.763762245439E+00 -4.740532466248E+00
 -4.714433300046E+00 -4.685530622356E+00 -4.653919655941E+00 -4.619725747925E+00