<?xml version="1.0" encoding="UTF-8" ?>
<psml version="1.1" energy_unit="hartree" length_unit="bohr"
 uuid="24385590-539e-11e8-4344-f933bfcd157c"
 xmlns="http://esl.cecam.org/PSML/ns/1.1">
<provenance creator="ONCVPSP-3.3.0+psml-3.3.0-73 (fully-relativistic)"
 date="2018-05-09">
<annotation action="semilocal-pseudopotential-generation"
 action-cont="projectors-generation" />
<input-file name="oncvpsp-input">
<![CDATA[# atsym z nc nv iexc psfile
S 16 3 2 -116133 upf
# n l f
1 0 2.0
2 0 2.0
2 1 6.0
3 0 2.0
3 1 4.0
# lmax
2
# l rc ep ncon nbas qcut
0 1.45 0.0 4 9 6.3
1 1.45 0.0 4 9 7.6
2 1.60 0.15 4 9 7.0
# lloc lpopt rc5 dvloc0
4 5 1.4 0.0
# l nproj debl
0 2 2.0
1 2 2.0
2 2 1.0
# icmod fcfact
3 6 1.25
# epsh1 epsh2 depsh
-12.0 12.0 0.02
# rlmax drl
6.0 0.01
 0
]]>
</input-file>
</provenance>
<pseudo-atom-spec atomic-label="S" atomic-number="16" z-pseudo="6"
 flavor="Hamann&apos;s oncvpsp" relativity="dirac" spin-dft="no"
 core-corrections="yes">
<annotation pseudo-energy="-10.0947359241" />
<exchange-correlation>
<annotation oncvpsp-xc-code="-116133" oncvpsp-xc-type="libxc-interface" />
<libxc-info number-of-functionals="2">
<functional name="Perdew, Burke &amp; Ernzerhof SOL (GGA)" type="exchange"
 id="116" />
<functional name="Perdew, Burke &amp; Ernzerhof SOL (GGA)" type="correlation"
 id="133" />
</libxc-info>
</exchange-correlation>
<valence-configuration total-valence-charge="6">
<shell n="3" l="s" occupation="2" />
<shell n="3" l="p" occupation="4" />
</valence-configuration>
</pseudo-atom-spec>
<grid npts="457">
<annotation type="sampled from oncvpsp log grid"
 recipe="r(i:1..N) = r1*exp(a*(i-1)) + r=0; resampled"
 recipe-cont="r1: scale; a: step" scale="0.312500000000E-04"
 step="0.119285708653E-01" delta="0.500000000000E-02" rmax="44.0674949757" />
<grid-data>
  0.000000000000E+00  5.032089401363E-03  1.005120367503E-02  1.507840828192E-02
  2.031740843734E-02  2.548578698111E-02  3.084510470868E-02  3.601910451176E-02
  4.106941804742E-02  4.627257563705E-02  5.151672975532E-02  5.667511193686E-02
  6.235000413091E-02  6.777976739691E-02  7.280867859944E-02  7.821070922764E-02
  8.401354282973E-02  8.917679538664E-02  9.465736793826E-02  1.004747621413E-01
  1.066496781734E-01  1.118617474217E-01  1.173285353557E-01  1.230624903151E-01
  1.290766690016E-01  1.353847662102E-01  1.420011460131E-01  1.471747771426E-01
  1.525369029415E-01  1.580943909733E-01  1.638543590123E-01  1.698241841602E-01
  1.760115122937E-01  1.824242678575E-01  1.890706640132E-01  1.959592131586E-01
  2.030987378299E-01  2.104983820012E-01  2.155806549362E-01  2.207856342690E-01
  2.261162826228E-01  2.315756341504E-01  2.371667962613E-01  2.428929513903E-01
  2.487573588086E-01  2.547633564797E-01  2.609143629586E-01  2.672138793378E-01
  2.736654912406E-01  2.802728708611E-01  2.870397790552E-01  2.939700674807E-01
  3.010676807899E-01  3.083366588749E-01  3.157811391668E-01  3.234053589908E-01
  3.312136579783E-01  3.392104805365E-01  3.474003783786E-01  3.557880131142E-01
  3.643781589028E-01  3.731757051713E-01  3.821856593970E-01  3.914131499575E-01
  4.008634290501E-01  4.105418756810E-01  4.204539987275E-01  4.254994467122E-01
  4.306054400728E-01  4.357727053536E-01  4.410019778179E-01  4.462940015517E-01
  4.516495295703E-01  4.570693239252E-01  4.625541558123E-01  4.681048056820E-01
  4.737220633502E-01  4.794067281104E-01  4.851596088477E-01  4.909815241539E-01
  4.968733024437E-01  5.028357820731E-01  5.088698114579E-01  5.149762491954E-01
  5.211559641858E-01  5.274098357560E-01  5.337387537851E-01  5.401436188305E-01
  5.466253422565E-01  5.531848463636E-01  5.598230645199E-01  5.665409412942E-01
  5.733394325897E-01  5.802195057808E-01  5.871821398501E-01  5.942283255283E-01
  6.013590654347E-01  6.085753742199E-01  6.158782787105E-01  6.232688180550E-01
  6.307480438717E-01  6.383170203982E-01  6.459768246429E-01  6.537285465387E-01
  6.615732890971E-01  6.695121685663E-01  6.775463145891E-01  6.856768703642E-01
  6.939049928085E-01  7.022318527222E-01  7.106586349549E-01  7.191865385744E-01
  7.278167770372E-01  7.365505783617E-01  7.453891853020E-01  7.543338555257E-01
  7.633858617920E-01  7.725464921335E-01  7.818170500391E-01  7.911988546395E-01
  8.006932408952E-01  8.103015597860E-01  8.200251785034E-01  8.298654806454E-01
  8.398238664132E-01  8.499017528101E-01  8.601005738439E-01  8.704217807300E-01
  8.808668420987E-01  8.914372442039E-01  9.021344911344E-01  9.129601050280E-01
  9.239156262883E-01  9.350026138038E-01  9.462226451694E-01  9.575773169115E-01
  9.690682447144E-01  9.806970636510E-01  9.924654284148E-01  1.004375013556E+00
  1.016427513718E+00  1.028624643883E+00  1.040968139610E+00  1.053459757285E+00
  1.066101274372E+00  1.078894489665E+00  1.091841223541E+00  1.104943318223E+00
  1.118202638042E+00  1.131621069699E+00  1.145200522535E+00  1.158942928805E+00
  1.172850243951E+00  1.186924446878E+00  1.201167540241E+00  1.215581550724E+00
  1.230168529332E+00  1.244930551684E+00  1.259869718305E+00  1.274988154924E+00
  1.290288012783E+00  1.305771468937E+00  1.321440726564E+00  1.337298015283E+00
  1.353345591466E+00  1.369585738564E+00  1.386020767427E+00  1.402653016636E+00
  1.419484852835E+00  1.436518671069E+00  1.453756895122E+00  1.471201977864E+00
  1.488856401598E+00  1.506722678417E+00  1.524803350558E+00  1.543100990765E+00
  1.561618202654E+00  1.580357621086E+00  1.599321912539E+00  1.618513775489E+00
  1.637935940795E+00  1.657591172085E+00  1.677482266150E+00  1.697612053344E+00
  1.717983397984E+00  1.738599198760E+00  1.759462389145E+00  1.780575937814E+00
  1.801942849068E+00  1.823566163257E+00  1.845448957216E+00  1.867594344703E+00
  1.890005476839E+00  1.912685542561E+00  1.935637769072E+00  1.958865422301E+00
  1.982371807368E+00  2.006160269057E+00  2.030234192286E+00  2.054597002593E+00
  2.079252166624E+00  2.104203192624E+00  2.129453630935E+00  2.155007074506E+00
  2.180867159400E+00  2.207037565313E+00  2.233522016097E+00  2.260324280290E+00
  2.287448171654E+00  2.314897549713E+00  2.342676320310E+00  2.370788436154E+00
  2.399237897388E+00  2.428028752156E+00  2.457165097182E+00  2.486651078348E+00
  2.516490891288E+00  2.546688781984E+00  2.577249047368E+00  2.608176035936E+00
  2.639474148367E+00  2.671147838148E+00  2.703201612206E+00  2.735640031552E+00
  2.768467711931E+00  2.801689324474E+00  2.835309596367E+00  2.869333311524E+00
  2.903765311262E+00  2.938610494997E+00  2.973873820937E+00  3.009560306789E+00
  3.045675030470E+00  3.082223130836E+00  3.119209808406E+00  3.156640326107E+00
  3.194520010020E+00  3.232854250140E+00  3.271648501142E+00  3.310908283155E+00
  3.350639182553E+00  3.390846852744E+00  3.431537014977E+00  3.472715459157E+00
  3.514388044666E+00  3.556560701202E+00  3.599239429617E+00  3.642430302772E+00
  3.686139466406E+00  3.730373140002E+00  3.775137617682E+00  3.820439269095E+00
  3.866284540324E+00  3.912679954808E+00  3.959632114265E+00  4.007147699637E+00
  4.055233472032E+00  4.103896273697E+00  4.153143028981E+00  4.202980745329E+00
  4.253416514273E+00  4.304457512444E+00  4.356111002593E+00  4.408384334624E+00
  4.461284946640E+00  4.514820366000E+00  4.568998210392E+00  4.623826188916E+00
  4.679312103183E+00  4.735463848421E+00  4.792289414603E+00  4.849796887578E+00
  4.907994450229E+00  4.966890383631E+00  5.026493068235E+00  5.086810985054E+00
  5.147852716874E+00  5.209626949477E+00  5.272142472871E+00  5.335408182545E+00
  5.399433080736E+00  5.464226277704E+00  5.529796993037E+00  5.596154556953E+00
  5.663308411637E+00  5.731268112576E+00  5.800043329927E+00  5.869643849887E+00
  5.940079576085E+00  6.011360530998E+00  6.083496857370E+00  6.156498819659E+00
  6.230376805494E+00  6.305141327160E+00  6.380803023086E+00  6.457372659363E+00
  6.534861131276E+00  6.613279464851E+00  6.692638818429E+00  6.772950484250E+00
  6.854225890061E+00  6.936476600742E+00  7.019714319951E+00  7.103950891790E+00
  7.189198302492E+00  7.275468682122E+00  7.362774306307E+00  7.451127597983E+00
  7.540541129159E+00  7.631027622709E+00  7.722599954181E+00  7.815271153631E+00
  7.909054407475E+00  8.003963060365E+00  8.100010617089E+00  8.197210744494E+00
  8.295577273428E+00  8.395124200709E+00  8.495865691118E+00  8.597816079411E+00
  8.700989872364E+00  8.805401750832E+00  8.911066571842E+00  9.017999370705E+00
  9.126215363153E+00  9.235729947511E+00  9.346558706881E+00  9.458717411364E+00
  9.572222020300E+00  9.687088684543E+00  9.803333748758E+00  9.920973753743E+00
  1.004002543879E+01  1.016050574405E+01  1.028243181298E+01  1.040582099474E+01
  1.053069084667E+01  1.065705913683E+01  1.078494384648E+01  1.091436317263E+01
  1.104533553071E+01  1.117787955707E+01  1.131201411176E+01  1.144775828110E+01
  1.158513138047E+01  1.172415295704E+01  1.186484279252E+01  1.200722090603E+01
  1.215130755691E+01  1.229712324759E+01  1.244468872656E+01  1.259402499128E+01
  1.274515329117E+01  1.289809513067E+01  1.305287227224E+01  1.320950673950E+01
  1.336802082038E+01  1.352843707022E+01  1.369077831507E+01  1.385506765485E+01
  1.402132846670E+01  1.418958440830E+01  1.435985942120E+01  1.453217773426E+01
  1.470656386707E+01  1.488304263347E+01  1.506163914508E+01  1.524237881482E+01
  1.542528736059E+01  1.561039080892E+01  1.579771549863E+01  1.598728808461E+01
  1.617913554163E+01  1.637328516813E+01  1.656976459015E+01  1.676860176523E+01
  1.696982498641E+01  1.717346288625E+01  1.737954444088E+01  1.758809897417E+01
  1.779915616186E+01  1.801274603580E+01  1.822889898823E+01  1.844764577609E+01
  1.866901752541E+01  1.889304573571E+01  1.911976228454E+01  1.934919943195E+01
  1.958138982514E+01  1.981636650304E+01  2.005416290108E+01  2.029481285589E+01
  2.053835061016E+01  2.078481081748E+01  2.103422854729E+01  2.128663928986E+01
  2.154207896134E+01  2.180058390887E+01  2.206219091578E+01  2.232693720677E+01
  2.259486045325E+01  2.286599877869E+01  2.314039076403E+01  2.341807545320E+01
  2.369909235864E+01  2.398348146694E+01  2.427128324455E+01  2.456253864348E+01
  2.485728910720E+01  2.515557657649E+01  2.545744349541E+01  2.576293281735E+01
  2.607208801116E+01  2.638495306729E+01  2.670157250410E+01  2.702199137415E+01
  2.734625527064E+01  2.767441033389E+01  2.800650325790E+01  2.834258129699E+01
  2.868269227255E+01  2.902688457982E+01  2.937520719478E+01  2.972770968112E+01
  3.008444219729E+01  3.044545550366E+01  3.081080096970E+01  3.118053058134E+01
  3.155469694832E+01  3.193335331170E+01  3.231655355144E+01  3.270435219405E+01
  3.309680442038E+01  3.349396607343E+01  3.389589366631E+01  3.430264439030E+01
  3.471427612299E+01  3.513084743646E+01  3.555241760570E+01  3.597904661697E+01
  3.641079517637E+01  3.684772471849E+01  3.728989741511E+01  3.773737618409E+01
  3.819022469830E+01  3.864850739468E+01  3.911228948342E+01  3.958163695722E+01
  4.005661660071E+01  4.053729599991E+01  4.102374355191E+01  4.151602847454E+01
  4.201422081623E+01  4.251839146603E+01  4.302861216362E+01  4.354495550958E+01
  4.406749497570E+01
</grid-data>
</grid>
<valence-charge total-charge="6" is-unscreening-charge="yes"
 rescaled-to-z-pseudo="no">
<radfunc>
<data npts="457">
  1.419128918305E-02  1.425239775913E-02  1.443512068911E-02  1.474012848417E-02
  1.518804539925E-02  1.576020283084E-02  1.649043865799E-02  1.732803883838E-02
  1.827163910413E-02  1.937444668673E-02  2.062062731108E-02  2.197890384633E-02
  2.362569750457E-02  2.535173301573E-02  2.708226036020E-02  2.908335344616E-02
  3.139802624657E-02  3.360234556974E-02  3.609236314247E-02  3.890594855999E-02
  4.208619537611E-02  4.492715000535E-02  4.806230375095E-02  5.152305513951E-02
  5.534431981438E-02  5.956494984953E-02  6.422820551552E-02  6.804491295317E-02
  7.215994297313E-02  7.659754847048E-02  8.138405835095E-02  8.654806263582E-02
  9.212061345459E-02  9.813544284668E-02  1.046291981945E-01  1.116416959522E-01
  1.192161941006E-01  1.273996834259E-01  1.332186969316E-01  1.393471507920E-01
  1.458021387715E-01  1.526017085269E-01  1.597649087838E-01  1.673118373096E-01
  1.752636893674E-01  1.836428062600E-01  1.924727234875E-01  2.017782179448E-01
  2.115853534691E-01  2.219215239227E-01  2.328154928489E-01  2.442974285748E-01
  2.563989334526E-01  2.691530657266E-01  2.825943522860E-01  2.967587903171E-01
  3.116838355960E-01  3.274083748732E-01  3.439726794859E-01  3.614183370042E-01
  3.797881573734E-01  3.991260496567E-01  4.194768651282E-01  4.408862021154E-01
  4.634001676549E-01  4.870650907282E-01  5.119271815889E-01  5.248214759938E-01
  5.380321315089E-01  5.515647020814E-01  5.654246471787E-01  5.796173132617E-01
  5.941479140172E-01  6.090215093093E-01  6.242429828110E-01  6.398170182800E-01
  6.557480744465E-01  6.720403584834E-01  6.886977980335E-01  7.057240117739E-01
  7.231222785008E-01  7.408955047259E-01  7.590461907814E-01  7.775763954359E-01
  7.964876990342E-01  8.157811651794E-01  8.354573009870E-01  8.555160159478E-01
  8.759565794505E-01  8.967775770204E-01  9.179768653475E-01  9.395515261864E-01
  9.614978192230E-01  9.838111340176E-01  1.006485941147E+00  1.029515742683E+00
  1.052893022157E+00  1.076609194181E+00  1.100654553903E+00  1.125018226502E+00
  1.149688116928E+00  1.174650860129E+00  1.199891772007E+00  1.225394801378E+00
  1.251142483211E+00  1.277115893466E+00  1.303294605840E+00  1.329656650787E+00
  1.356178477161E+00  1.382834916890E+00  1.409599153088E+00  1.436442692051E+00
  1.463335339612E+00  1.490245182344E+00  1.517138574152E+00  1.543980128804E+00
  1.570732719009E+00  1.597357482660E+00  1.623813836902E+00  1.650059500732E+00
  1.676050526836E+00  1.701741343430E+00  1.727084806871E+00  1.752032265819E+00
  1.776533637759E+00  1.800537498650E+00  1.823991186470E+00  1.846840919382E+00
  1.869031929175E+00  1.890508610557E+00  1.911214686760E+00  1.931093391764E+00
  1.950087669294E+00  1.968140388514E+00  1.985194576105E+00  2.001193664155E+00
  2.016081752965E+00  2.029803887576E+00  2.042306346439E+00  2.053536940349E+00
  2.063445319366E+00  2.071983285122E+00  2.079105105624E+00  2.084767829350E+00
  2.088931595260E+00  2.091559935193E+00  2.092620065052E+00  2.092083161264E+00
  2.089924619116E+00  2.086124289893E+00  2.080666694079E+00  2.073541208450E+00
  2.064742225428E+00  2.054269283800E+00  2.042127170601E+00  2.028325994742E+00
  2.012881233670E+00  1.995813754996E+00  1.977149815566E+00  1.956921040777E+00
  1.935164387079E+00  1.911922090452E+00  1.887241603219E+00  1.861175520867E+00
  1.833781499523E+00  1.805122163582E+00  1.775265001618E+00  1.744282247376E+00
  1.712250741404E+00  1.679251767871E+00  1.645370860617E+00  1.610697236813E+00
  1.575321792671E+00  1.539334307048E+00  1.502822749799E+00  1.465873517454E+00
  1.428570990943E+00  1.390997367081E+00  1.353232464665E+00  1.315353551069E+00
  1.277435185671E+00  1.239549080229E+00  1.201763976305E+00  1.164145539687E+00
  1.126756271680E+00  1.089655437042E+00  1.052899008208E+00  1.016539625422E+00
  9.806265722610E-01  9.452057659894E-01  9.103197621173E-01  8.760077724657E-01
  8.423056960060E-01  8.092461616915E-01  7.768585824703E-01  7.451692196403E-01
  7.142012566929E-01  6.839748817766E-01  6.545073779130E-01  6.258132200969E-01
  5.979041784221E-01  5.707894263884E-01  5.444756535657E-01  5.189671818251E-01
  4.942660843000E-01  4.703723064637E-01  4.472837884881E-01  4.249965882745E-01
  4.035050045122E-01  3.828016991758E-01  3.628778189087E-01  3.437231147872E-01
  3.253260600011E-01  3.076739650301E-01  2.907530899361E-01  2.745487534382E-01
  2.590454384731E-01  2.442268939878E-01  2.300762327525E-01  2.165760250013E-01
  2.037083877906E-01  1.914550699350E-01  1.797975324647E-01  1.687170245562E-01
  1.581946549240E-01  1.482114586832E-01  1.387484597236E-01  1.297867286523E-01
  1.213074363879E-01  1.132919035060E-01  1.057216454505E-01  9.857841374254E-02
  9.184423332800E-02  8.550143621696E-02  7.953269157333E-02  7.392103242049E-02
  6.864987913057E-02  6.370305986702E-02  5.906482814890E-02  5.471987770327E-02
  5.065335476803E-02  4.685086800236E-02  4.329849615614E-02  3.998279364276E-02
  3.689079415283E-02  3.401001243932E-02  3.132844439770E-02  2.883456555843E-02
  2.651732810330E-02  2.436615651224E-02  2.237094194295E-02  2.052203544239E-02
  1.881024008640E-02  1.722680214179E-02  1.576340134360E-02  1.441214037914E-02
  1.316553366915E-02  1.201649553550E-02  1.095832784379E-02  9.984707207234E-03
  9.089671836945E-03  8.267608121019E-03  7.513237012115E-03  6.821600300028E-03
  6.188046841844E-03  5.608218818127E-03  5.078038078927E-03  4.593692638453E-03
  4.151623372097E-03  3.748510964077E-03  3.381263148558E-03  3.047002281600E-03
  2.743053275902E-03  2.466931925001E-03  2.216333638489E-03  1.989122604933E-03
  1.783321394607E-03  1.597101009849E-03  1.428771386905E-03  1.276772349569E-03
  1.139665011674E-03  1.016123622672E-03  9.049278480718E-04  8.049554744003E-04
  7.151755266115E-04  6.346417844760E-04  5.624866833869E-04  4.979155842410E-04
  4.402013965295E-04  3.886795384939E-04  3.427432181299E-04  3.018390189305E-04
  2.654627745124E-04  2.331557166479E-04  2.045008816905E-04  1.791197609191E-04
  1.566691809088E-04  1.368384006460E-04  1.193464127256E-04  1.039394365915E-04
  9.038859238519E-05  7.848774455954E-05  6.805150497924E-05  5.891338576567E-05
  5.092409265342E-05  4.394995010464E-05  3.787144987859E-05  3.258191517818E-05
  2.798627289506E-05  2.399992685188E-05  2.054772529823E-05  1.756301625548E-05
  1.498678463046E-05  1.276686532757E-05  1.085722688728E-05  9.217320466535E-06
  7.811489254369E-06  6.608433685201E-06  5.580728073341E-06  4.704384545409E-06
  3.958460393034E-06  3.324705206333E-06  2.787244379223E-06  2.332295800515E-06
  1.947916759737E-06  1.623778303540E-06  1.350964477194E-06  1.121794075816E-06
  9.296627114714E-07  7.689031749769E-07  6.346622350784E-07  5.227921725614E-07
  4.297554928756E-07  3.525413980150E-07  2.885927268424E-07  2.357421929359E-07
  1.921568605684E-07  1.562899028578E-07  1.268387817308E-07  1.027090774222E-07
  8.298327613325E-08  6.689389853435E-08  5.380041939136E-08  4.316949008825E-08
  3.455803159135E-08  2.759881582517E-08  2.198819888049E-08  1.747571031632E-08
  1.385523940431E-08  1.095759183951E-08  8.644219535929E-09  6.801951951741E-09
  5.338580245249E-09  4.179165729889E-09  3.262961836032E-09  2.540854345070E-09
  1.973238263848E-09  1.528261564563E-09  1.180376319561E-09  9.091466878201E-10
  6.982709209585E-10  5.347811963748E-10  4.083907850546E-10  3.109629394283E-10
  2.360800480998E-10  1.786951433896E-10  1.348508480614E-10  1.014533832892E-10
  7.609139603093E-11  5.689115771894E-11  4.240118756500E-11  3.150060637878E-11
  2.332656841801E-11  1.721698210372E-11  1.266544358664E-11  9.285894284294E-12
  6.784995254051E-12  4.940605193763E-12  3.585069866153E-12  2.592291416497E-12
  1.867756990167E-12  1.340876142294E-12  9.591131866118E-13  6.835100284538E-13
  4.852822846395E-13  3.432408345208E-13  2.418458450440E-13  1.697436127853E-13
  1.186705879672E-13  8.263557460677E-14  5.731186257267E-14  3.958717063829E-14
  2.723175107854E-14  1.865461431050E-14  1.272520392230E-14  8.643484316681E-15
  5.845697121406E-15  3.936265872390E-15  2.638823014177E-15  1.761126707534E-15
  1.170043270409E-15  7.737851403422E-16  5.093564586905E-16  3.337195748568E-16
  2.176080866748E-16  1.412135715333E-16  9.119266117161E-17  5.860013484136E-17
  3.746838046941E-17  2.383577756032E-17  0.000000000000E+00  0.000000000000E+00
  0.000000000000E+00  0.000000000000E+00  0.000000000000E+00  0.000000000000E+00
  0.000000000000E+00  0.000000000000E+00  0.000000000000E+00  0.000000000000E+00
  0.000000000000E+00  0.000000000000E+00  0.000000000000E+00  0.000000000000E+00
  0.000000000000E+00  0.000000000000E+00  0.000000000000E+00  0.000000000000E+00
  0.000000000000E+00  0.000000000000E+00  0.000000000000E+00  0.000000000000E+00
  0.000000000000E+00  0.000000000000E+00  0.000000000000E+00  0.000000000000E+00
  0.000000000000E+00  0.000000000000E+00  0.000000000000E+00  0.000000000000E+00
  0.000000000000E+00  0.000000000000E+00  0.000000000000E+00  0.000000000000E+00
  0.000000000000E+00  0.000000000000E+00  0.000000000000E+00  0.000000000000E+00
  0.000000000000E+00  0.000000000000E+00  0.000000000000E+00  0.000000000000E+00
  0.000000000000E+00  0.000000000000E+00  0.000000000000E+00  0.000000000000E+00
  0.000000000000E+00
</data>
</radfunc>
</valence-charge>
<pseudocore-charge matching-radius="0.912960105028"
 number-of-continuous-derivatives="4">
<annotation model-charge-form="Teter function with specified parameters" />
<radfunc>
<data npts="290">
  1.274168918947E+01  1.274090647715E+01  1.273856667634E+01  1.273466304937E+01
  1.272893505600E+01  1.272162629138E+01  1.271231126096E+01  1.270164459666E+01
  1.268965088019E+01  1.267566404530E+01  1.265989814204E+01  1.264276126898E+01
  1.262204979632E+01  1.260041812074E+01  1.257880794001E+01  1.255391519642E+01
  1.252524891631E+01  1.249807476185E+01  1.246752400539E+01  1.243318649830E+01
  1.239460480467E+01  1.236034313645E+01  1.232275328396E+01  1.228152320562E+01
  1.223631396625E+01  1.218675792365E+01  1.213245690694E+01  1.208835954883E+01
  1.204115757407E+01  1.199064570124E+01  1.193660711942E+01  1.187881316595E+01
  1.181702305382E+01  1.175098366183E+01  1.168042940270E+01  1.160508218622E+01
  1.152465149726E+01  1.143883461091E+01  1.137847615575E+01  1.131548825098E+01
  1.124977275261E+01  1.118122950562E+01  1.110975648728E+01  1.103524997635E+01
  1.095760475054E+01  1.087671431471E+01  1.079247116258E+01  1.070476707463E+01
  1.061349345520E+01  1.051854171165E+01  1.041980367879E+01  1.031717209160E+01
  1.021054110950E+01  1.009980689521E+01  9.984868251441E+00  9.865627318298E+00
  9.741990334386E+00  9.613868464133E+00  9.481178693746E+00  9.343844797716E+00
  9.201798377332E+00  9.054979972044E+00  8.903340243777E+00  8.746841233428E+00
  8.585457687709E+00  8.419178453312E+00  8.248007933941E+00  8.160594443924E+00
  8.071967604167E+00  7.982133022744E+00  7.891097572235E+00  7.798869440519E+00
  7.705458181893E+00  7.610874768373E+00  7.515131641079E+00  7.418242761532E+00
  7.320223662737E+00  7.221091499863E+00  7.120865100361E+00  7.019565013321E+00
  6.917213557864E+00  6.813834870361E+00  6.709454950243E+00  6.604101704153E+00
  6.497804988198E+00  6.390596648017E+00  6.282510556384E+00  6.173582648046E+00
  6.063850951491E+00  5.953355617306E+00  5.842138942805E+00  5.730245392561E+00
  5.617721614488E+00  5.504616451103E+00  5.390980945580E+00  5.276868342210E+00
  5.162334080865E+00  5.047435785077E+00  4.932233243305E+00  4.816788383006E+00
  4.701165237085E+00  4.585429902329E+00  4.469650489434E+00  4.353897064219E+00
  4.238241579679E+00  4.122757798486E+00  4.007521205629E+00  3.892608910851E+00
  3.778099540620E+00  3.664073119361E+00  3.550610939740E+00  3.437795421830E+00
  3.325709961028E+00  3.214438764657E+00  3.104066677229E+00  2.994678994449E+00
  2.886361266043E+00  2.779199087658E+00  2.673277882073E+00  2.568682670132E+00
  2.465497831830E+00  2.363806858147E+00  2.263692094276E+00  2.165234475036E+00
  2.068513253357E+00  1.973605722834E+00  1.880586935491E+00  1.789529415974E+00
  1.700502873566E+00  1.613573913477E+00  1.528805749035E+00  1.446257916472E+00
  1.365985994148E+00  1.288041328123E+00  1.212470766107E+00  1.139316401895E+00
  1.068615332446E+00  1.000399429863E+00  9.346951305156E-01  8.715232436276E-01
  8.108987815934E-01  7.528308143098E-01  6.973223497315E-01  6.443702427930E-01
  5.939651347317E-01  5.460914247086E-01  5.007272754526E-01  4.578446544548E-01
  4.174094119979E-01  3.793813970393E-01  3.437146116580E-01  3.103574044433E-01
  2.792527028300E-01  2.503382839937E-01  2.235470834928E-01  1.988075404053E-01
  1.760439772446E-01  1.551770124674E-01  1.361240029126E-01  1.187995130327E-01
  1.031158073169E-01  8.898336185857E-02  7.631139060167E-02  6.500838142173E-02
  5.498263686059E-02  4.614281406005E-02  3.839845822802E-02  3.166052383752E-02
  2.584187770886E-02  2.085777816858E-02  1.662632461988E-02  1.306887210425E-02
  1.011040578525E-02  7.679870743463E-03  5.710453035230E-03  4.139808631580E-03
  2.910237611467E-03  1.968801823380E-03  1.267385139098E-03  7.626963858309E-04
  4.162160390577E-04  1.940887662838E-04  6.696490757614E-05  9.794936681616E-06
  1.581840179217E-06  2.509715485760E-05  6.656708937318E-05  1.153357009719E-04
  1.635124800633E-04  2.056118968538E-04  2.381924719174E-04  2.595027389921E-04
  2.691410723419E-04  2.677357586709E-04  2.566509181764E-04  2.377229417394E-04
  2.130310395873E-04  1.847043257694E-04  1.547666328800E-04  1.250190073337E-04
  9.695862443497E-05  7.173173231622E-05  5.011723070892E-05  3.253665655430E-05
  1.908571932554E-05  9.582131611437E-06  3.624331376027E-06  6.557955996761E-07
  2.999192080102E-08  1.071583394160E-06  3.130256897719E-06  5.624442249957E-06
  8.073172118801E-06  1.011534196994E-05  1.151660228039E-05  1.216499184009E-05
  1.205714739694E-05  1.127745787495E-05  9.972841638758E-06  8.325900193376E-06
  6.529046827432E-06  4.761847714129E-06  3.173286172848E-06  1.870021974253E-06
  9.110295639478E-07  3.083281351736E-07  3.292608051363E-08  2.464697764574E-08
  2.042237889630E-07  4.859633170165E-07  7.893936867908E-07  1.048591653012E-06
  1.218302471825E-06  1.276456893632E-06  1.223193470856E-06  1.076945655719E-06
  8.684960169322E-07  6.340938190357E-07  4.087578442811E-07  2.207483693707E-07
  8.791880659322E-08  1.629631637489E-08  0.000000000000E+00  0.000000000000E+00
  0.000000000000E+00  0.000000000000E+00  0.000000000000E+00  0.000000000000E+00
  0.000000000000E+00  0.000000000000E+00  0.000000000000E+00  0.000000000000E+00
  0.000000000000E+00  0.000000000000E+00  0.000000000000E+00  0.000000000000E+00
  0.000000000000E+00  0.000000000000E+00  0.000000000000E+00  0.000000000000E+00
  0.000000000000E+00  0.000000000000E+00  0.000000000000E+00  0.000000000000E+00
  0.000000000000E+00  0.000000000000E+00  0.000000000000E+00  0.000000000000E+00
  0.000000000000E+00  0.000000000000E+00  0.000000000000E+00  0.000000000000E+00
  0.000000000000E+00  0.000000000000E+00  0.000000000000E+00  0.000000000000E+00
  0.000000000000E+00  0.000000000000E+00  0.000000000000E+00  0.000000000000E+00
  0.000000000000E+00  0.000000000000E+00  0.000000000000E+00  0.000000000000E+00
  0.000000000000E+00  0.000000000000E+00  0.000000000000E+00  0.000000000000E+00
  0.000000000000E+00  0.000000000000E+00
</data>
</radfunc>
</pseudocore-charge>
<semilocal-potentials set="lj">
<slps n="3" l="s" j="0.5" rc="1.45375689512" eref="-0.631843584240">
<radfunc>
<data npts="290">
  5.125408710393E+01  5.122379942118E+01  5.113342699278E+01  5.098321265466E+01
  5.076405254845E+01  5.048655990819E+01  5.013634352684E+01  4.973998151414E+01
  4.930015552100E+01  4.879489516971E+01  4.823501813971E+01  4.763775195754E+01
  4.693114186530E+01  4.621036774933E+01  4.550728248753E+01  4.471766245901E+01
  4.383415931917E+01  4.302109485583E+01  4.213416836858E+01  4.117005137080E+01
  4.012601183048E+01  3.923188635032E+01  3.828475941834E+01  3.728450191693E+01
  3.623148856853E+01  3.512664975044E+01  3.397151595417E+01  3.307343733179E+01
  3.214942706791E+01  3.120085002487E+01  3.022927986280E+01  2.923649467057E+01
  2.822446912612E+01  2.719536309235E+01  2.615150664800E+01  2.509538165372E+01
  2.402960005869E+01  2.295687925766E+01  2.223925516421E+01  2.152063018377E+01
  2.080185170917E+01  2.008376870742E+01  1.936722755058E+01  1.865306783366E+01
  1.794211822058E+01  1.723519235953E+01  1.653308490862E+01  1.583656771229E+01
  1.514638616728E+01  1.446325581557E+01  1.378785919969E+01  1.312084301322E+01
  1.246281557698E+01  1.181434466852E+01  1.117595572946E+01  1.054813047255E+01
  9.931305906761E+00  9.325873795920E+00  8.732180562805E+00  8.150527647443E+00
  7.581172324602E+00  7.024328981679E+00  6.480170853945E+00  5.948832209406E+00
  5.430410970196E+00  4.924971751353E+00  4.432549290818E+00  4.191222956323E+00
  3.953152236503E+00  3.718334808744E+00  3.486767247123E+00  3.258445163839E+00
  3.033363353140E+00  2.811515937118E+00  2.592896512693E+00  2.377498299048E+00
  2.165314284703E+00  1.956337373401E+00  1.750560527871E+00  1.547976910534E+00
  1.348580020104E+00  1.152363823036E+00  9.593228786915E-01  7.694524570576E-01
  5.827486478179E-01  3.992084595357E-01  2.188299076883E-01  4.161209027143E-02
 -1.324447503074E-01 -3.033391803218E-01 -4.710685440586E-01 -6.356289506045E-01
 -7.970152792513E-01 -9.552212045747E-01 -1.110239242190E+00 -1.262060816048E+00
 -1.410676347948E+00 -1.556075369813E+00 -1.698246659062E+00 -1.837178397148E+00
 -1.972858351086E+00 -2.105274077493E+00 -2.234413148319E+00 -2.360263397094E+00
 -2.482813184105E+00 -2.602051678534E+00 -2.717969155064E+00 -2.830557302081E+00
 -2.939809538022E+00 -3.045721331991E+00 -3.148290524207E+00 -3.247517641384E+00
 -3.343406201641E+00 -3.435963003089E+00 -3.525198389810E+00 -3.611126488599E+00
 -3.693765409517E+00 -3.773137403088E+00 -3.849268966872E+00 -3.922190894132E+00
 -3.991938257430E+00 -4.058550320324E+00 -4.122070370729E+00 -4.182545470232E+00
 -4.240026114454E+00 -4.294565800721E+00 -4.346220500649E+00 -4.395048036944E+00
 -4.441107365708E+00 -4.484457767923E+00 -4.525157956512E+00 -4.563265108537E+00
 -4.598833835667E+00 -4.631915109981E+00 -4.662555166511E+00 -4.690794408457E+00
 -4.716666345738E+00 -4.740196602116E+00 -4.761402030457E+00 -4.780289979337E+00
 -4.796857756898E+00 -4.811092339183E+00 -4.822970369773E+00 -4.832458495081E+00
 -4.839514074755E+00 -4.844086299160E+00 -4.846117735689E+00 -4.845546312608E+00
 -4.842307733520E+00 -4.836338297367E+00 -4.827578078641E+00 -4.815974400520E+00
 -4.801485510576E+00 -4.784084345155E+00 -4.763762245408E+00 -4.740532466212E+00
 -4.714433300008E+00 -4.685530622317E+00 -4.653919655902E+00 -4.619725747887E+00