<?xml version="1.0" encoding="UTF-8" ?>
<psml version="1.1" energy_unit="hartree" length_unit="bohr"
 uuid="010cf7e0-53a0-11e8-6461-8e789fbf6eef"
 xmlns="http://esl.cecam.org/PSML/ns/1.1">
<provenance creator="ONCVPSP-3.3.0+psml-3.3.0-73 (fully-relativistic)"
 date="2018-05-09">
<annotation action="semilocal-pseudopotential-generation"
 action-cont="projectors-generation" />
<input-file name="oncvpsp-input">
<![CDATA[# atsym z nc nv iexc psfile
Bi 83 12 3 -116133 upf
# n l f
1 0 2.0
2 0 2.0
2 1 6.0
3 0 2.0
3 1 6.0
3 2 10.0
4 0 2.0
4 1 6.0
4 2 10.0
5 0 2.0
5 1 6.0
4 3 14.0
5 2 10.0
6 0 2.0
6 1 3.0
# lmax
2
# l rc ep ncon nbas qcut
0 2.4 0.0 4 7 3.6
1 2.5 0.0 4 7 4.5
2 2.1 0.0 4 7 8.7
# lloc lpopt rc5 dvloc0
4 5 2.0 0.0
# l nproj debl
0 2 2.5
1 2 2.5
2 2 1.2
# icmod fcfact rcfact
3 6.0 1.34
# epsh1 epsh2 depsh
-12.0 12.0 0.02
# rlmax drl
6.0 0.01
 0
]]>
</input-file>
</provenance>
<pseudo-atom-spec atomic-label="Bi" atomic-number="83" z-pseudo="15"
 flavor="Hamann&apos;s oncvpsp" relativity="dirac" spin-dft="no"
 core-corrections="yes">
<annotation pseudo-energy="-71.1455674744" />
<exchange-correlation>
<annotation oncvpsp-xc-code="-116133" oncvpsp-xc-type="libxc-interface" />
<libxc-info number-of-functionals="2">
<functional name="Perdew, Burke &amp; Ernzerhof SOL (GGA)" type="exchange"
 id="116" />
<functional name="Perdew, Burke &amp; Ernzerhof SOL (GGA)" type="correlation"
 id="133" />
</libxc-info>
</exchange-correlation>
<valence-configuration total-valence-charge="15">
<shell n="5" l="d" occupation="10" />
<shell n="6" l="s" occupation="2" />
<shell n="6" l="p" occupation="3" />
</valence-configuration>
</pseudo-atom-spec>
<grid npts="457">
<annotation type="sampled from oncvpsp log grid"
 recipe="r(i:1..N) = r1*exp(a*(i-1)) + r=0; resampled"
 recipe-cont="r1: scale; a: step" scale="0.602409638554E-05"
 step="0.119285708653E-01" delta="0.500000000000E-02" rmax="44.0626872033" />
<grid-data>
  0.000000000000E+00  5.031540399417E-03  1.005010708672E-02  1.507676322460E-02
  2.031519180407E-02  2.548300647672E-02  3.084173950167E-02  3.601517482036E-02
  4.106493736582E-02  4.626752728992E-02  5.151110926994E-02  5.666892867097E-02
  6.234320173317E-02  6.777237261092E-02  7.280073515825E-02  7.820217642384E-02
  8.400437693564E-02  8.916706618068E-02  9.464704080075E-02  1.004638003250E-01
  1.066380426725E-01  1.118495432830E-01  1.173157347894E-01  1.230490641731E-01
  1.290625867116E-01  1.353699957055E-01  1.419856536601E-01  1.471587203454E-01
  1.525202611353E-01  1.580771428440E-01  1.638364824694E-01  1.698056563082E-01
  1.759923094030E-01  1.824043653339E-01  1.890500363665E-01  1.959378339698E-01
  2.030765797176E-01  2.104754165862E-01  2.155571350442E-01  2.207615465127E-01
  2.260916132918E-01  2.315503692031E-01  2.371409213171E-01  2.428664517214E-01
  2.487302193317E-01  2.547355617473E-01  2.608858971501E-01  2.671847262509E-01
  2.736356342815E-01  2.802422930356E-01  2.870084629587E-01  2.939379952883E-01
  3.010348342466E-01  3.083030192846E-01  3.157466873822E-01  3.233700754024E-01
  3.311775225029E-01  3.391734726062E-01  3.473624769288E-01  3.557491965718E-01
  3.643384051738E-01  3.731349916283E-01  3.821439628662E-01  3.913704467057E-01
  4.008196947709E-01  4.104970854815E-01  4.204081271133E-01  4.254530246387E-01
  4.305584609344E-01  4.357251624656E-01  4.409538644152E-01  4.462453107881E-01
  4.516002545176E-01  4.570194575718E-01  4.625036910627E-01  4.680537353554E-01
  4.736703801797E-01  4.793544247418E-01  4.851066778387E-01  4.909279579728E-01
  4.968190934685E-01  5.027809225901E-01  5.088142936612E-01  5.149200651851E-01
  5.210991059673E-01  5.273522952389E-01  5.336805227818E-01  5.400846890552E-01
  5.465657053239E-01  5.531244937877E-01  5.597619877132E-01  5.664791315658E-01
  5.732768811445E-01  5.801562037183E-01  5.871180781629E-01  5.941634951008E-01
  6.012934570421E-01  6.085089785266E-01  6.158110862689E-01  6.232008193041E-01
  6.306792291358E-01  6.382473798854E-01  6.459063484440E-01  6.536572246253E-01
  6.615011113208E-01  6.694391246567E-01  6.774723941526E-01  6.856020628824E-01
  6.938292876370E-01  7.021552390886E-01  7.105811019577E-01  7.191080751812E-01
  7.277373720834E-01  7.364702205484E-01  7.453078631950E-01  7.542515575533E-01
  7.633025762439E-01  7.724622071589E-01  7.817317536448E-01  7.911125346885E-01
  8.006058851048E-01  8.102131557260E-01  8.199357135947E-01  8.297749421579E-01
  8.397322414638E-01  8.498090283613E-01  8.600067367017E-01  8.703268175421E-01
  8.807707393526E-01  8.913399882248E-01  9.020360680835E-01  9.128605009005E-01
  9.238148269113E-01  9.349006048343E-01  9.461194120923E-01  9.574728450374E-01
  9.689625191778E-01  9.805900694080E-01  9.923571502409E-01  1.004265436044E+00
  1.016316621276E+00  1.028512420732E+00  1.040854569780E+00  1.053344824618E+00
  1.065984962513E+00  1.078776782063E+00  1.091722103448E+00  1.104822768689E+00
  1.118080641914E+00  1.131497609617E+00  1.145075580932E+00  1.158816487903E+00
  1.172722285758E+00  1.186794953187E+00  1.201036492625E+00  1.215448930537E+00
  1.230034317703E+00  1.244794729516E+00  1.259732266270E+00  1.274849053465E+00
  1.290147242107E+00  1.305629009012E+00  1.321296557120E+00  1.337152115806E+00
  1.353197941195E+00  1.369436316490E+00  1.385869552288E+00  1.402499986915E+00
  1.419329986758E+00  1.436361946599E+00  1.453598289958E+00  1.471041469438E+00
  1.488693967071E+00  1.506558294676E+00  1.524636994212E+00  1.542932638143E+00
  1.561447829800E+00  1.580185203758E+00  1.599147426203E+00  1.618337195317E+00
  1.637757241661E+00  1.657410328561E+00  1.677299252504E+00  1.697426843534E+00
  1.717795965656E+00  1.738409517244E+00  1.759270431451E+00  1.780381676629E+00
  1.801746256748E+00  1.823367211829E+00  1.845247618371E+00  1.867390589792E+00
  1.889799276869E+00  1.912476868191E+00  1.935426590610E+00  1.958651709697E+00
  1.982155530213E+00  2.005941396576E+00  2.030012693335E+00  2.054372845655E+00
  2.079025319803E+00  2.103973623640E+00  2.129221307124E+00  2.154771962810E+00
  2.180629226363E+00  2.206796777080E+00  2.233278338405E+00  2.260077678465E+00
  2.287198610607E+00  2.314644993934E+00  2.342420733862E+00  2.370529782668E+00
  2.398976140060E+00  2.427763853741E+00  2.456897019986E+00  2.486379784225E+00
  2.516216341636E+00  2.546410937736E+00  2.576967868988E+00  2.607891483416E+00
  2.639186181217E+00  2.670856415392E+00  2.702906692377E+00  2.735341572685E+00
  2.768165671557E+00  2.801383659616E+00  2.835000263531E+00  2.869020266694E+00
  2.903448509894E+00  2.938289892013E+00  2.973549370717E+00  3.009231963166E+00
  3.045342746724E+00  3.081886859684E+00  3.118869502001E+00  3.156295936025E+00
  3.194171487257E+00  3.232501545104E+00  3.271291563645E+00  3.310547062409E+00
  3.350273627158E+00  3.390476910684E+00  3.431162633612E+00  3.472336585215E+00
  3.514004624238E+00  3.556172679729E+00  3.598846751885E+00  3.642032912908E+00
  3.685737307863E+00  3.729966155557E+00  3.774725749424E+00  3.820022458417E+00
  3.865862727918E+00  3.912253080653E+00  3.959200117621E+00  4.006710519032E+00
  4.054791045261E+00  4.103448537804E+00  4.152689920258E+00  4.202522199301E+00
  4.252952465692E+00  4.303987895281E+00  4.355635750024E+00  4.407903379024E+00
  4.460798219573E+00  4.514327798207E+00  4.568499731786E+00  4.623321728567E+00
  4.678801589310E+00  4.734947208382E+00  4.791766574882E+00  4.849267773781E+00
  4.907458987066E+00  4.966348494911E+00  5.025944676850E+00  5.086256012972E+00
  5.147291085128E+00  5.209058578150E+00  5.271567281087E+00  5.334826088460E+00
  5.398844001522E+00  5.463630129540E+00  5.529193691095E+00  5.595544015388E+00
  5.662690543572E+00  5.730642830095E+00  5.799410544056E+00  5.869003470585E+00
  5.939431512232E+00  6.010704690379E+00  6.082833146664E+00  6.155827144423E+00
  6.229697070157E+00  6.304453434998E+00  6.380106876218E+00  6.456668158733E+00
  6.534148176638E+00  6.612557954757E+00  6.691908650215E+00  6.772211554017E+00
  6.853478092665E+00  6.935719829777E+00  7.018948467735E+00  7.103175849347E+00
  7.188413959540E+00  7.274674927054E+00  7.361971026179E+00  7.450314678493E+00
  7.539718454635E+00  7.630195076090E+00  7.721757417004E+00  7.814418506008E+00
  7.908191528080E+00  8.003089826417E+00  8.099126904334E+00  8.196316427186E+00
  8.294672224312E+00  8.394208291004E+00  8.494938790496E+00  8.596878055982E+00
  8.700040592653E+00  8.804441079765E+00  8.910094372722E+00  9.017015505195E+00
  9.125219691257E+00  9.234722327553E+00  9.345538995483E+00  9.457685463429E+00
  9.571177688990E+00  9.686031821258E+00  9.802264203113E+00  9.919891373550E+00
  1.003893007003E+01  1.015939723087E+01  1.028130999764E+01  1.040468571762E+01
  1.052954194623E+01  1.065589644958E+01  1.078376720698E+01  1.091317241346E+01
  1.104413048242E+01  1.117666004821E+01  1.131077996879E+01  1.144650932842E+01
  1.158386744036E+01  1.172287384964E+01  1.186354833584E+01  1.200591091587E+01
  1.214998184686E+01  1.229578162902E+01  1.244333100857E+01  1.259265098067E+01
  1.274376279244E+01  1.289668794595E+01  1.305144820130E+01  1.320806557971E+01
  1.336656236667E+01  1.352696111507E+01  1.368928464845E+01  1.385355606423E+01
  1.401979873700E+01  1.418803632185E+01  1.435829275771E+01  1.453059227080E+01
  1.470495937805E+01  1.488141889059E+01  1.505999591728E+01  1.524071586828E+01
  1.542360445870E+01  1.560868771221E+01  1.579599196475E+01  1.598554386833E+01
  1.617737039475E+01  1.637149883949E+01  1.656795682556E+01  1.676677230747E+01
  1.696797357516E+01  1.717158925806E+01  1.737764832916E+01  1.758618010911E+01
  1.779721427042E+01  1.801078084166E+01  1.822691021176E+01  1.844563313430E+01
  1.866698073191E+01  1.889098450070E+01  1.911767631470E+01  1.934708843048E+01
  1.957925349165E+01  1.981420453355E+01  2.005197498795E+01  2.029259868780E+01
  2.053610987206E+01  2.078254319052E+01  2.103193370881E+01  2.128431691331E+01
  2.153972871627E+01  2.179820546087E+01  2.205978392640E+01  2.232450133352E+01
  2.259239534952E+01  2.286350409371E+01  2.313786614284E+01  2.341552053655E+01
  2.369650678299E+01  2.398086486439E+01  2.426863524276E+01  2.455985886567E+01
  2.485457717206E+01  2.515283209812E+01  2.545466608330E+01  2.576012207630E+01
  2.606924354122E+01  2.638207446371E+01  2.669865935728E+01  2.701904326956E+01
  2.734327178880E+01  2.767139105026E+01  2.800344774287E+01  2.833948911578E+01
  2.867956298517E+01  2.902371774099E+01  2.937200235389E+01  2.972446638213E+01
  3.008115997872E+01  3.044213389846E+01  3.080743950524E+01  3.117712877931E+01
  3.155125432466E+01  3.192986937655E+01  3.231302780907E+01  3.270078414278E+01
  3.309319355250E+01  3.349031187513E+01  3.389219561763E+01  3.429890196504E+01
  3.471048878862E+01  3.512701465408E+01  3.554853882993E+01  3.597512129589E+01
  3.640682275144E+01  3.684370462446E+01  3.728582907995E+01  3.773325902891E+01
  3.818605813726E+01  3.864429083490E+01  3.910802232492E+01  3.957731859282E+01
  4.005224641594E+01  4.053287337293E+01  4.101926785340E+01  4.151149906764E+01
  4.200963705646E+01  4.251375270113E+01  4.302391773355E+01  4.354020474635E+01
  4.406268720331E+01
</grid-data>
</grid>
<valence-charge total-charge="15" is-unscreening-charge="yes"
 rescaled-to-z-pseudo="no">
<radfunc>
<data npts="457">
  9.943634885843E-03  9.947651756759E-03  9.961018755414E-03  9.987853240535E-03
  1.003748846733E-02  1.011853399366E-02  1.025059768604E-02  1.044140021516E-02
  1.070636920707E-02  1.108273963495E-02  1.159386315437E-02  1.225375379840E-02
  1.319614480225E-02  1.434942827848E-02  1.567374747715E-02  1.741218294057E-02
  1.969609847367E-02  2.213925733588E-02  2.520857023292E-02  2.906497115174E-02
  3.391021128035E-02  3.866610066128E-02  4.437307832169E-02  5.121957343589E-02
  5.943034317969E-02  6.927310603640E-02  8.106625989628E-02  9.141594552863E-02
  1.032586844673E-01  1.168040631079E-01  1.322895245747E-01  1.499836871141E-01
  1.701899639488E-01  1.932504876956E-01  2.195503346261E-01  2.495220336506E-01
  2.836503313816E-01  3.224771673572E-01  3.512676985485E-01  3.826091225663E-01
  4.167109313112E-01  4.537972815931E-01  4.941076278536E-01  5.378973150826E-01
  5.854381167820E-01  6.370187004378E-01  6.929450003318E-01  7.535404746629E-01
  8.191462208501E-01  8.901209195766E-01  9.668405746146E-01  1.049698011791E+00
  1.139102096641E+00  1.235476626433E+00  1.339258848396E+00  1.450897552241E+00
  1.570850681614E+00  1.699582406026E+00  1.837559592343E+00  1.985247613277E+00
  2.143105429782E+00  2.311579885062E+00  2.491099150569E+00  2.682065269032E+00
  2.884845746921E+00  3.099764159100E+00  3.327089742284E+00  3.445471710876E+00
  3.567025971895E+00  3.691765646309E+00  3.819698139390E+00  3.950824701298E+00
  4.085139974669E+00  4.222631530176E+00  4.363279391236E+00  4.507055549198E+00
  4.653923470564E+00  4.803837597994E+00  4.956742847068E+00  5.112574101029E+00
  5.271255705947E+00  5.432700969022E+00  5.596811662978E+00  5.763477539802E+00
  5.932575857322E+00  6.103970922406E+00  6.277513654850E+00  6.453041176292E+00
  6.630376428747E+00  6.809327827645E+00  6.989688954499E+00  7.171238294554E+00
  7.353739025014E+00  7.536938859605E+00  7.720569955443E+00  7.904348888266E+00
  8.087976702198E+00  8.271139040287E+00  8.453506362002E+00  8.634734253855E+00
  8.814463839182E+00  8.992322292891E+00  9.167923466749E+00  9.340868630394E+00
  9.510747332812E+00  9.677138388502E+00  9.839610991860E+00  9.997725962606E+00
  1.015103712421E+01  1.029909281624E+01  1.044143754066E+01  1.057761374055E+01
  1.070716370895E+01  1.082963162343E+01  1.094456570127E+01  1.105152046773E+01
  1.115005912875E+01  1.123975603757E+01  1.132019924257E+01  1.139099310234E+01
  1.145176095163E+01  1.150214780035E+01  1.154182304558E+01  1.157048317516E+01
  1.158785443958E+01  1.159369546734E+01  1.158779979760E+01  1.156999830305E+01
  1.154016147445E+01  1.149820153843E+01  1.144407437905E+01  1.137778123438E+01
  1.129937013934E+01  1.120893708719E+01  1.110662688319E+01  1.099263366610E+01
  1.086720107500E+01  1.073062204226E+01  1.058323819627E+01  1.042543886172E+01
  1.025765964912E+01  1.008038063019E+01  9.894124100482E+00  9.699451936132E+00
  9.496962557155E+00  9.287287515383E+00  9.071087730995E+00  8.849049407318E+00
  8.621879659190E+00  8.390301895498E+00  8.155051001463E+00  7.916868370636E+00
  7.676496840417E+00  7.434675587889E+00  7.192135045021E+00  6.949591893504E+00
  6.707744199767E+00  6.467266749862E+00  6.228806642033E+00  5.992979191750E+00
  5.760364199899E+00  5.531502629738E+00  5.306893732165E+00  5.086992651982E+00
  4.872208540262E+00  4.662903189850E+00  4.459390202527E+00  4.261934687787E+00
  4.070753484541E+00  3.886015888717E+00  3.707844861771E+00  3.536318687810E+00
  3.371473040443E+00  3.213303414883E+00  3.061767876160E+00  2.916790070867E+00
  2.778262447483E+00  2.646049629201E+00  2.519991883154E+00  2.399908631044E+00
  2.285601948318E+00  2.176860002038E+00  2.073460381468E+00  1.975173279872E+00
  1.881764491069E+00  1.792998189690E+00  1.708639469730E+00  1.628456621809E+00
  1.552223135267E+00  1.479719416942E+00  1.410734223882E+00  1.345065812399E+00
  1.282522810657E+00  1.222924826224E+00  1.166102803867E+00  1.111899152007E+00
  1.060167658863E+00  1.010773221185E+00  9.635914097384E-01  9.185078962151E-01
  8.754177660589E-01  8.342247409883E-01  7.948402762813E-01  7.571824314743E-01
  7.211747919333E-01  6.867459247280E-01  6.538288538012E-01  6.223604925298E-01
  5.922811062357E-01  5.635337958842E-01  5.360640194966E-01  5.098191630368E-01
  4.847481712384E-01  4.608012470358E-01  4.379297375204E-01  4.160865419736E-01
  3.952267763975E-01  3.753077525476E-01  3.562887269865E-01  3.381309141483E-01
  3.207973822069E-01  3.042529411612E-01  2.884640497545E-01  2.733987218458E-01
  2.590264381712E-01  2.453180626601E-01  2.322457633919E-01  2.197829381233E-01
  2.079041442943E-01  1.965850333921E-01  1.858022895328E-01  1.755335721013E-01
  1.657574622751E-01  1.564534132487E-01  1.476017039657E-01  1.391833961621E-01
  1.311802945224E-01  1.235749097481E-01  1.163504243433E-01  1.094906609212E-01
  1.029800528453E-01  9.680361702181E-02  9.094692866341E-02  8.539609786784E-02
  8.013774784088E-02  7.515899462002E-02  7.044742815718E-02  6.599109463024E-02
  6.177847986240E-02  5.779849373883E-02  5.404045551964E-02  5.049407995803E-02
  4.714946414189E-02  4.399707498385E-02  4.102773731008E-02  3.823262246578E-02
  3.560323741595E-02  3.313141428941E-02  3.080930033471E-02  2.862934826028E-02
  2.658430693581E-02  2.466721243574E-02  2.287137940873E-02  2.119039275868E-02
  1.961809962411E-02  1.814860164278E-02  1.677624748782E-02  1.549562566070E-02
  1.430155752480E-02  1.318909056180E-02  1.215349183153E-02  1.119024161459E-02
  1.029502721603E-02  9.463736908205E-03  8.692453990759E-03  7.977450946872E-03
  7.315183676120E-03  6.702285786454E-03  6.135562930277E-03  5.611987172492E-03
  5.128691381538E-03  4.682963637646E-03  4.272241655774E-03  3.894107223750E-03
  3.546280658992E-03  3.226615289683E-03  2.933091968411E-03  2.663813628031E-03
  2.416999890777E-03  2.190981742552E-03  1.984196284785E-03  1.795181576324E-03
  1.622571577624E-03  1.465091208924E-03  1.321551533336E-03  1.190845074785E-03
  1.071941279608E-03  9.638821293613E-04  8.657779110723E-04  7.768031498351E-04
  6.961927072738E-04  6.232380480953E-04  5.572836756726E-04  4.977237364074E-04
  4.439987915128E-04  3.955927538586E-04  3.520299866296E-04  3.128725597882E-04
  2.777176596816E-04  2.461951466221E-04  2.179652548665E-04  1.927164291382E-04
  1.701632916586E-04  1.500447335753E-04  1.321221246759E-04  1.161776353562E-04
  1.020126649458E-04  8.944637067800E-05  7.831429180664E-05  6.846706361552E-05
  5.976921631651E-05  5.209805409283E-05  4.534260979817E-05  3.940267107049E-05
  3.418787385429E-05  2.961685954604E-05  2.561649218231E-05  2.212113227765E-05
  1.907196409152E-05  1.641637326004E-05  1.410737187093E-05  1.210306819098E-05
  1.036617837542E-05  8.863577600375E-06  7.565888164549E-06  6.447102205644E-06
  5.484236772823E-06  4.657019089166E-06  3.947599929011E-06  3.340293124676E-06
  2.821339305941E-06  2.378692064099E-06  2.001824820429E-06  1.681556766670E-06
  1.409896332286E-06  1.179900719848E-06  9.855501354213E-07  8.216354251567E-07
  6.836579120128E-07  5.677403073221E-07  4.705476505239E-07  3.892173064462E-07
  3.212971228312E-07  2.646909211015E-07  2.176105604990E-07  1.785338795344E-07
  1.461678790685E-07  1.194165682425E-07  9.735294785911E-08  7.919465569542E-08
  6.428284464783E-08  5.206390763882E-08  4.207370294170E-08  3.392397012507E-08
  2.729066030783E-08  2.190393499437E-08  1.753961558010E-08  1.401189084010E-08
  1.116711250117E-08  8.878529515147E-09  7.041830062738E-09  5.571376784141E-09
  4.397035411235E-09  3.461510019081E-09  2.718109665836E-09  2.128881388281E-09
  1.663053494781E-09  1.295740970535E-09  1.006871695000E-09  7.802981734066E-10
  6.030647004128E-10  4.648043928422E-10  3.572444312047E-10  2.738012098302E-10
  2.092499794013E-10  1.594560332367E-10  1.211565933789E-10  9.178434213144E-11
  6.932506157511E-11  5.220312527653E-11  3.918966593097E-11  2.932914904862E-11
  2.188084134234E-11  1.627229527266E-11  1.206249738837E-11  8.912764207087E-12
  6.563829641249E-12  4.817864597546E-12  3.524412788542E-12  2.569425867346E-12
  1.866743254230E-12  1.351493822730E-12  9.750032998844E-13  7.008772940120E-13
  5.019990376637E-13  3.582363378856E-13  2.546964421180E-13  1.804026870517E-13
  1.272946521694E-13  8.947552521306E-14  6.264767489950E-14  4.369096894700E-14
  3.034894358953E-14  2.099614563196E-14  1.446632869374E-14  9.926090631792E-15
  6.782306952189E-15  4.614597458995E-15  3.126259291327E-15  2.108765592351E-15
  1.416187749410E-15  9.468460638050E-16  6.302030029607E-16  4.175421772154E-16
  2.753689652533E-16  1.807590587353E-16  1.180948550004E-16  7.678613509713E-17
  4.968558035267E-17  3.199249818888E-17  2.049794709408E-17  1.306745154449E-17
  8.288259163276E-18  5.228356419608E-18  3.282109641794E-18  2.049513111165E-18
  1.273005721313E-18  7.864371218473E-19  4.831958724511E-19  2.952426699129E-19
  1.793917114269E-19  1.083834594827E-19  6.510739234595E-20  3.888414154237E-20
  2.308640208626E-20  0.000000000000E+00  0.000000000000E+00  0.000000000000E+00
  0.000000000000E+00  0.000000000000E+00  0.000000000000E+00  0.000000000000E+00
  0.000000000000E+00  0.000000000000E+00  0.000000000000E+00  0.000000000000E+00
  0.000000000000E+00
</data>
</radfunc>
</valence-charge>
<pseudocore-charge matching-radius="1.01631662128"
 number-of-continuous-derivatives="4">
<annotation model-charge-form="Teter function with specified parameters" />
<radfunc>
<data npts="290">
  6.376833560730E+01  6.376558552829E+01  6.375736429941E+01  6.374364740303E+01
  6.372351776872E+01  6.369782922923E+01  6.366508318084E+01  6.362757737529E+01
  6.358539492926E+01  6.353618853925E+01  6.348070512668E+01  6.342037511640E+01
  6.334743033067E+01  6.327120895807E+01  6.319502684526E+01  6.310722745591E+01
  6.300605816058E+01  6.291009518779E+01  6.280213846797E+01  6.268071235636E+01
  6.254416593962E+01  6.242280919945E+01  6.228955569763E+01  6.214326719196E+01
  6.198270241860E+01  6.180650901664E+01  6.161321509478E+01  6.145606491511E+01
  6.128767310751E+01  6.110726878182E+01  6.091403329964E+01  6.070709812083E+01
  6.048554268880E+01  6.024839238459E+01  5.999461658526E+01  5.972312686842E+01
  5.943277541188E+01  5.912235364557E+01  5.890363086149E+01  5.867503282859E+01
  5.843615537885E+01  5.818658198825E+01  5.792588384537E+01  5.765361998058E+01
  5.736933746322E+01  5.707257167457E+01  5.676284666506E+01  5.643967560481E+01
  5.610256133734E+01  5.575099704668E+01  5.538446704910E+01  5.500244772118E+01
  5.460440857662E+01  5.418981350486E+01  5.375812218529E+01  5.330879169116E+01
  5.284127829820E+01  5.235503951298E+01  5.184953633672E+01  5.132423578026E+01
  5.077861364603E+01  5.021215759274E+01  4.962437049802E+01  4.901477413377E+01
  4.838291316783E+01  4.772835950441E+01  4.705071697384E+01  4.670312354486E+01
  4.634962638004E+01  4.599018724466E+01  4.562477091121E+01  4.525334534842E+01
  4.487588191595E+01  4.449235556474E+01  4.410274504276E+01  4.370703310625E+01
  4.330520673613E+01  4.289725735961E+01  4.248318107661E+01  4.206297889089E+01
  4.163665694567E+01  4.120422676324E+01  4.076570548853E+01  4.032111613596E+01
  3.987048783943E+01  3.941385610473E+01  3.895126306414E+01  3.848275773239E+01
  3.800839626357E+01  3.752824220826E+01  3.704236677015E+01  3.655084906135E+01
  3.605377635568E+01  3.555124433888E+01  3.504335735488E+01  3.453022864704E+01
  3.401198059337E+01  3.348874493443E+01  3.296066299280E+01  3.242788588273E+01
  3.189057470867E+01  3.134890075118E+01  3.080304563881E+01  3.025320150420E+01
  2.969957112302E+01  2.914236803374E+01  2.858181663679E+01  2.801815227097E+01
  2.745162126552E+01  2.688248096574E+01  2.631099973030E+01  2.573745689821E+01
  2.516214272341E+01  2.458535827505E+01  2.400741530128E+01  2.342863605461E+01
  2.284935307686E+01  2.226990894155E+01  2.169065595206E+01  2.111195579340E+01
  2.053417913609E+01  1.995770519028E+01  1.938292120856E+01  1.881022193622E+01
  1.824000900750E+01  1.767269028693E+01  1.710867915487E+01  1.654839373671E+01
  1.599225607535E+01  1.544069124700E+01  1.489412642073E+01  1.435298986216E+01
  1.381770988273E+01  1.328871373578E+01  1.276642646146E+01  1.225126968291E+01
  1.174366035664E+01  1.124400948044E+01  1.075272076293E+01  1.027018925925E+01
  9.796799978009E+00  9.332926465229E+00  8.878929371625E+00  8.435155010136E+00
  8.001933911226E+00  7.579579384071E+00  7.168386092311E+00  6.768628653583E+00
  6.380560272559E+00  6.004411417687E+00  5.640388552221E+00  5.288672930476E+00
  4.949419470540E+00  4.622755714805E+00  4.308780889812E+00  4.007565076865E+00
  3.719148504721E+00  3.443540975400E+00  3.180721433752E+00  2.930637690846E+00
  2.693206310555E+00  2.468312667794E+00  2.255811185876E+00  2.055525759190E+00
  1.867250366042E+00  1.690749874952E+00  1.525761045975E+00  1.371993726761E+00
  1.229132241037E+00  1.096836965103E+00  9.747460856515E-01  8.624775299462E-01
  7.596310570001E-01  6.657904960199E-01  5.805261160148E-01  5.033971081535E-01
  4.339541602453E-01  3.717421006588E-01  3.163025871219E-01  2.671768142239E-01
  2.239082121091E-01  1.860451078624E-01  1.531433204868E-01  1.247686602007E-01
  1.004993030797E-01  7.992801286477E-02  6.266418307130E-02  4.833567438642E-02
  3.659042472422E-02  2.709781221736E-02  1.954975483017E-02  1.366153414385E-02
  9.172335134135E-03  5.845498365734E-03  3.468485880866E-03  1.852567062458E-03
  8.322357951459E-04  2.643752070172E-04  2.719102353879E-05  1.893896900747E-05
  1.564755770745E-04  3.736650916512E-04  6.196777332826E-04  8.572163686911E-04
  1.060709466912E-03  1.214508092962E-03  1.311123546898E-03  1.349540102874E-03
  1.333634175333E-03  1.270727211272E-03  1.170294789065E-03  1.042848942590E-03
  8.990048032854E-04  7.487364688774E-04  6.008207923935E-04  4.624617765569E-04
  3.390826955474E-04  2.342681767862E-04  1.498344658460E-04  8.600313965204E-05
  4.165175342352E-05  1.461437731174E-05  2.005709666245E-06  5.443898639097E-07
  6.854153180100E-06  1.772538958731E-05  3.032424987907E-05  4.234140665149E-05
  5.207761932880E-05  5.846805995320E-05  6.105163261342E-05  5.989500259871E-05
  5.548353583582E-05  4.859270191526E-05  4.015366721850E-05  3.112584178414E-05
  2.238717815012E-05  1.465026705627E-05  8.409012391074E-06  3.917215566401E-06
  1.197089040720E-06  7.286213576166E-08  2.225015886894E-07  1.239329074232E-06
  2.695065217589E-06  4.196543239619E-06  5.429887151463E-06  6.188117690562E-06
  6.380644044117E-06  6.025597234021E-06  5.228144728153E-06  4.149525665409E-06
  2.972375795003E-06  1.867894082149E-06  9.695831570491E-07  3.568329663117E-07
  4.976302036027E-08  0.000000000000E+00  0.000000000000E+00  0.000000000000E+00
  0.000000000000E+00  0.000000000000E+00  0.000000000000E+00  0.000000000000E+00
  0.000000000000E+00  0.000000000000E+00  0.000000000000E+00  0.000000000000E+00
  0.000000000000E+00  0.000000000000E+00  0.000000000000E+00  0.000000000000E+00
  0.000000000000E+00  0.000000000000E+00  0.000000000000E+00  0.000000000000E+00
  0.000000000000E+00  0.000000000000E+00  0.000000000000E+00  0.000000000000E+00
  0.000000000000E+00  0.000000000000E+00  0.000000000000E+00  0.000000000000E+00
  0.000000000000E+00  0.000000000000E+00  0.000000000000E+00  0.000000000000E+00
  0.000000000000E+00  0.000000000000E+00
</data>
</radfunc>
</pseudocore-charge>
<semilocal-potentials set="lj">
<slps n="6" l="s" j="0.5" rc="2.42776385374" eref="-0.531125550539">
<radfunc>
<data npts="290">
  1.116310494456E+01  1.115820732676E+01  1.114357638653E+01  1.111919919570E+01
  1.108350258503E+01  1.103808081573E+01  1.098039474184E+01  1.091461749334E+01
  1.084101047029E+01  1.075564063158E+01  1.066001250631E+01  1.055678343258E+01
  1.043300422762E+01  1.030485953317E+01  1.017798387064E+01  1.003323054634E+01
  9.868355275359E+00  9.713832883764E+00  9.542132271106E+00  9.351657713344E+00
  9.140742375512E+00  8.956137496193E+00  8.756452822162E+00  8.540787947777E+00
  8.308250291433E+00  8.057968489534E+00  7.789107890609E+00  7.574798098612E+00
  7.349294396823E+00  7.112322305168E+00  6.863641092654E+00  6.603049367098E+00
  6.330390844466E+00  6.045560218822E+00  5.748509039271E+00  5.439251486063E+00
  5.117869925096E+00  4.784520108967E+00  4.555750005974E+00  4.321852347741E+00
  4.082933261635E+00  3.839115948676E+00  3.590540974531E+00  3.337366467802E+00
  3.079768218712E+00  2.817939672121E+00  2.552091809707E+00  2.282452917279E+00
  2.009268234427E+00  1.732799485028E+00  1.453324288636E+00  1.171135454272E+00
  8.865401597273E-01  5.998590210858E-01  3.114250587563E-01  2.158256782846E-02
 -2.693140979807E-01 -5.609018181997E-01 -8.528100615288E-01 -1.144662293065E+00
 -1.436077419285E+00 -1.726671256704E+00 -2.016058009828E+00 -2.303851743980E+00
 -2.589667838834E+00 -2.873124408981E+00 -3.153843678656E+00 -3.293060220092E+00
 -3.431453298775E+00 -3.568977423892E+00 -3.705587595736E+00 -3.841239340373E+00
 -3.975888742948E+00 -4.109492479574E+00 -4.242007847777E+00 -4.373392795481E+00
 -4.503605948511E+00 -4.632606636617E+00 -4.760354918017E+00 -4.886811602478E+00
 -5.011938272957E+00 -5.135697305826E+00 -5.258051889741E+00 -5.378966043182E+00
 -5.498404630756E+00 -5.616333378297E+00 -5.732718886873E+00 -5.847528645779E+00
 -5.960731044610E+00 -6.072295384531E+00 -6.182191888850E+00 -6.290391713036E+00
 -6.396866954301E+00 -6.501590660896E+00 -6.604536841274E+00 -6.705680473267E+00
 -6.804997513452E+00 -6.902464906875E+00 -6.998060597291E+00 -7.091763538122E+00
 -7.183553704293E+00 -7.273412105131E+00 -7.361320798504E+00 -7.447262906381E+00
 -7.531222631958E+00 -7.613185278525E+00 -7.693137270200E+00 -7.771066174665E+00
 -7.846960727988E+00 -7.920810861612E+00 -7.992607731549E+00 -8.062343749770E+00
 -8.130012617754E+00 -8.195609362100E+00 -8.259130372041E+00 -8.320573438658E+00
 -8.379937795514E+00 -8.437224160338E+00 -8.492434777369E+00 -8.545573459822E+00
 -8.596645631916E+00 -8.645658369805E+00 -8.692620440669E+00 -8.737542339166E+00
 -8.780436320373E+00 -8.821316428278E+00 -8.860198518842E+00 -8.897100276620E+00
 -8.932041223864E+00 -8.965042721078E+00 -8.996127957913E+00 -9.025321933388E+00
 -9.052651424367E+00 -9.078144941316E+00 -9.101832670387E+00 -9.123746400934E+00
 -9.143919437653E+00 -9.162386496573E+00 -9.179183584263E+00 -9.194347859647E+00
 -9.207917477934E+00 -9.219931416272E+00 -9.230429280780E+00 -9.239451094750E+00
 -9.247037067885E+00 -9.253227346532E+00 -9.258061744991E+00 -9.261579458105E+00
 -9.263818755450E+00 -9.264816657648E+00 -9.264608595495E+00 -9.263228052863E+00