<?xml version="1.0" encoding="UTF-8" ?>
<psml version="1.1" energy_unit="hartree" length_unit="bohr"
 uuid="39a15320-53b5-11e8-6031-d5edf6fda057"
 xmlns="http://esl.cecam.org/PSML/ns/1.1">
<provenance creator="ONCVPSP-3.3.0+psml-3.3.0-73 (fully-relativistic)"
 date="2018-05-09">
<annotation action="semilocal-pseudopotential-generation"
 action-cont="projectors-generation" />
<input-file name="oncvpsp-input">
<![CDATA[# atsym z nc nv iexc psfile
Bi 83 10 5 -116133 upf
# n l f
1 0 2.0
2 0 2.0
2 1 6.0
3 0 2.0
3 1 6.0
3 2 10.0
4 0 2.0
4 1 6.0
4 2 10.0
4 3 14.0
5 0 2.0
5 1 6.0
5 2 10.0
6 0 2.0
6 1 3.0
# lmax
2
# l rc ep ncon nbas qcut
0 1.4 0.0 4 8 9.0
1 1.5 0.0 4 8 8.4
2 1.4 0.0 4 8 9.0
# lloc lpopt rc5 dvloc0
4 5 1.3 0.0
# l nproj debl
0 2 1.0
1 2 1.0
2 2 2.0
# icmod fcfact rcfact
3 6.0 1.34
# epsh1 epsh2 depsh
-12.0 12.0 0.02
# rlmax drl
6.0 0.01
 0
]]>
</input-file>
</provenance>
<pseudo-atom-spec atomic-label="Bi" atomic-number="83" z-pseudo="23"
 flavor="Hamann&apos;s oncvpsp" relativity="dirac" spin-dft="no"
 core-corrections="yes">
<annotation pseudo-energy="-217.721934797" />
<exchange-correlation>
<annotation oncvpsp-xc-code="-116133" oncvpsp-xc-type="libxc-interface" />
<libxc-info number-of-functionals="2">
<functional name="Perdew, Burke &amp; Ernzerhof SOL (GGA)" type="exchange"
 id="116" />
<functional name="Perdew, Burke &amp; Ernzerhof SOL (GGA)" type="correlation"
 id="133" />
</libxc-info>
</exchange-correlation>
<valence-configuration total-valence-charge="23">
<shell n="5" l="s" occupation="2" />
<shell n="5" l="p" occupation="6" />
<shell n="5" l="d" occupation="10" />
<shell n="6" l="s" occupation="2" />
<shell n="6" l="p" occupation="3" />
</valence-configuration>
</pseudo-atom-spec>
<grid npts="457">
<annotation type="sampled from oncvpsp log grid"
 recipe="r(i:1..N) = r1*exp(a*(i-1)) + r=0; resampled"
 recipe-cont="r1: scale; a: step" scale="0.602409638554E-05"
 step="0.119285708653E-01" delta="0.500000000000E-02" rmax="44.0626872033" />
<grid-data>
  0.000000000000E+00  5.031540399417E-03  1.005010708672E-02  1.507676322460E-02
  2.031519180407E-02  2.548300647672E-02  3.084173950167E-02  3.601517482036E-02
  4.106493736582E-02  4.626752728992E-02  5.151110926994E-02  5.666892867097E-02
  6.234320173317E-02  6.777237261092E-02  7.280073515825E-02  7.820217642384E-02
  8.400437693564E-02  8.916706618068E-02  9.464704080075E-02  1.004638003250E-01
  1.066380426725E-01  1.118495432830E-01  1.173157347894E-01  1.230490641731E-01
  1.290625867116E-01  1.353699957055E-01  1.419856536601E-01  1.471587203454E-01
  1.525202611353E-01  1.580771428440E-01  1.638364824694E-01  1.698056563082E-01
  1.759923094030E-01  1.824043653339E-01  1.890500363665E-01  1.959378339698E-01
  2.030765797176E-01  2.104754165862E-01  2.155571350442E-01  2.207615465127E-01
  2.260916132918E-01  2.315503692031E-01  2.371409213171E-01  2.428664517214E-01
  2.487302193317E-01  2.547355617473E-01  2.608858971501E-01  2.671847262509E-01
  2.736356342815E-01  2.802422930356E-01  2.870084629587E-01  2.939379952883E-01
  3.010348342466E-01  3.083030192846E-01  3.157466873822E-01  3.233700754024E-01
  3.311775225029E-01  3.391734726062E-01  3.473624769288E-01  3.557491965718E-01
  3.643384051738E-01  3.731349916283E-01  3.821439628662E-01  3.913704467057E-01
  4.008196947709E-01  4.104970854815E-01  4.204081271133E-01  4.254530246387E-01
  4.305584609344E-01  4.357251624656E-01  4.409538644152E-01  4.462453107881E-01
  4.516002545176E-01  4.570194575718E-01  4.625036910627E-01  4.680537353554E-01
  4.736703801797E-01  4.793544247418E-01  4.851066778387E-01  4.909279579728E-01
  4.968190934685E-01  5.027809225901E-01  5.088142936612E-01  5.149200651851E-01
  5.210991059673E-01  5.273522952389E-01  5.336805227818E-01  5.400846890552E-01
  5.465657053239E-01  5.531244937877E-01  5.597619877132E-01  5.664791315658E-01
  5.732768811445E-01  5.801562037183E-01  5.871180781629E-01  5.941634951008E-01
  6.012934570421E-01  6.085089785266E-01  6.158110862689E-01  6.232008193041E-01
  6.306792291358E-01  6.382473798854E-01  6.459063484440E-01  6.536572246253E-01
  6.615011113208E-01  6.694391246567E-01  6.774723941526E-01  6.856020628824E-01
  6.938292876370E-01  7.021552390886E-01  7.105811019577E-01  7.191080751812E-01
  7.277373720834E-01  7.364702205484E-01  7.453078631950E-01  7.542515575533E-01
  7.633025762439E-01  7.724622071589E-01  7.817317536448E-01  7.911125346885E-01
  8.006058851048E-01  8.102131557260E-01  8.199357135947E-01  8.297749421579E-01
  8.397322414638E-01  8.498090283613E-01  8.600067367017E-01  8.703268175421E-01
  8.807707393526E-01  8.913399882248E-01  9.020360680835E-01  9.128605009005E-01
  9.238148269113E-01  9.349006048343E-01  9.461194120923E-01  9.574728450374E-01
  9.689625191778E-01  9.805900694080E-01  9.923571502409E-01  1.004265436044E+00
  1.016316621276E+00  1.028512420732E+00  1.040854569780E+00  1.053344824618E+00
  1.065984962513E+00  1.078776782063E+00  1.091722103448E+00  1.104822768689E+00
  1.118080641914E+00  1.131497609617E+00  1.145075580932E+00  1.158816487903E+00
  1.172722285758E+00  1.186794953187E+00  1.201036492625E+00  1.215448930537E+00
  1.230034317703E+00  1.244794729516E+00  1.259732266270E+00  1.274849053465E+00
  1.290147242107E+00  1.305629009012E+00  1.321296557120E+00  1.337152115806E+00
  1.353197941195E+00  1.369436316490E+00  1.385869552288E+00  1.402499986915E+00
  1.419329986758E+00  1.436361946599E+00  1.453598289958E+00  1.471041469438E+00
  1.488693967071E+00  1.506558294676E+00  1.524636994212E+00  1.542932638143E+00
  1.561447829800E+00  1.580185203758E+00  1.599147426203E+00  1.618337195317E+00
  1.637757241661E+00  1.657410328561E+00  1.677299252504E+00  1.697426843534E+00
  1.717795965656E+00  1.738409517244E+00  1.759270431451E+00  1.780381676629E+00
  1.801746256748E+00  1.823367211829E+00  1.845247618371E+00  1.867390589792E+00
  1.889799276869E+00  1.912476868191E+00  1.935426590610E+00  1.958651709697E+00
  1.982155530213E+00  2.005941396576E+00  2.030012693335E+00  2.054372845655E+00
  2.079025319803E+00  2.103973623640E+00  2.129221307124E+00  2.154771962810E+00
  2.180629226363E+00  2.206796777080E+00  2.233278338405E+00  2.260077678465E+00
  2.287198610607E+00  2.314644993934E+00  2.342420733862E+00  2.370529782668E+00
  2.398976140060E+00  2.427763853741E+00  2.456897019986E+00  2.486379784225E+00
  2.516216341636E+00  2.546410937736E+00  2.576967868988E+00  2.607891483416E+00
  2.639186181217E+00  2.670856415392E+00  2.702906692377E+00  2.735341572685E+00
  2.768165671557E+00  2.801383659616E+00  2.835000263531E+00  2.869020266694E+00
  2.903448509894E+00  2.938289892013E+00  2.973549370717E+00  3.009231963166E+00
  3.045342746724E+00  3.081886859684E+00  3.118869502001E+00  3.156295936025E+00
  3.194171487257E+00  3.232501545104E+00  3.271291563645E+00  3.310547062409E+00
  3.350273627158E+00  3.390476910684E+00  3.431162633612E+00  3.472336585215E+00
  3.514004624238E+00  3.556172679729E+00  3.598846751885E+00  3.642032912908E+00
  3.685737307863E+00  3.729966155557E+00  3.774725749424E+00  3.820022458417E+00
  3.865862727918E+00  3.912253080653E+00  3.959200117621E+00  4.006710519032E+00
  4.054791045261E+00  4.103448537804E+00  4.152689920258E+00  4.202522199301E+00
  4.252952465692E+00  4.303987895281E+00  4.355635750024E+00  4.407903379024E+00
  4.460798219573E+00  4.514327798207E+00  4.568499731786E+00  4.623321728567E+00
  4.678801589310E+00  4.734947208382E+00  4.791766574882E+00  4.849267773781E+00
  4.907458987066E+00  4.966348494911E+00  5.025944676850E+00  5.086256012972E+00
  5.147291085128E+00  5.209058578150E+00  5.271567281087E+00  5.334826088460E+00
  5.398844001522E+00  5.463630129540E+00  5.529193691095E+00  5.595544015388E+00
  5.662690543572E+00  5.730642830095E+00  5.799410544056E+00  5.869003470585E+00
  5.939431512232E+00  6.010704690379E+00  6.082833146664E+00  6.155827144423E+00
  6.229697070157E+00  6.304453434998E+00  6.380106876218E+00  6.456668158733E+00
  6.534148176638E+00  6.612557954757E+00  6.691908650215E+00  6.772211554017E+00
  6.853478092665E+00  6.935719829777E+00  7.018948467735E+00  7.103175849347E+00
  7.188413959540E+00  7.274674927054E+00  7.361971026179E+00  7.450314678493E+00
  7.539718454635E+00  7.630195076090E+00  7.721757417004E+00  7.814418506008E+00
  7.908191528080E+00  8.003089826417E+00  8.099126904334E+00  8.196316427186E+00
  8.294672224312E+00  8.394208291004E+00  8.494938790496E+00  8.596878055982E+00
  8.700040592653E+00  8.804441079765E+00  8.910094372722E+00  9.017015505195E+00
  9.125219691257E+00  9.234722327553E+00  9.345538995483E+00  9.457685463429E+00
  9.571177688990E+00  9.686031821258E+00  9.802264203113E+00  9.919891373550E+00
  1.003893007003E+01  1.015939723087E+01  1.028130999764E+01  1.040468571762E+01
  1.052954194623E+01  1.065589644958E+01  1.078376720698E+01  1.091317241346E+01
  1.104413048242E+01  1.117666004821E+01  1.131077996879E+01  1.144650932842E+01
  1.158386744036E+01  1.172287384964E+01  1.186354833584E+01  1.200591091587E+01
  1.214998184686E+01  1.229578162902E+01  1.244333100857E+01  1.259265098067E+01
  1.274376279244E+01  1.289668794595E+01  1.305144820130E+01  1.320806557971E+01
  1.336656236667E+01  1.352696111507E+01  1.368928464845E+01  1.385355606423E+01
  1.401979873700E+01  1.418803632185E+01  1.435829275771E+01  1.453059227080E+01
  1.470495937805E+01  1.488141889059E+01  1.505999591728E+01  1.524071586828E+01
  1.542360445870E+01  1.560868771221E+01  1.579599196475E+01  1.598554386833E+01
  1.617737039475E+01  1.637149883949E+01  1.656795682556E+01  1.676677230747E+01
  1.696797357516E+01  1.717158925806E+01  1.737764832916E+01  1.758618010911E+01
  1.779721427042E+01  1.801078084166E+01  1.822691021176E+01  1.844563313430E+01
  1.866698073191E+01  1.889098450070E+01  1.911767631470E+01  1.934708843048E+01
  1.957925349165E+01  1.981420453355E+01  2.005197498795E+01  2.029259868780E+01
  2.053610987206E+01  2.078254319052E+01  2.103193370881E+01  2.128431691331E+01
  2.153972871627E+01  2.179820546087E+01  2.205978392640E+01  2.232450133352E+01
  2.259239534952E+01  2.286350409371E+01  2.313786614284E+01  2.341552053655E+01
  2.369650678299E+01  2.398086486439E+01  2.426863524276E+01  2.455985886567E+01
  2.485457717206E+01  2.515283209812E+01  2.545466608330E+01  2.576012207630E+01
  2.606924354122E+01  2.638207446371E+01  2.669865935728E+01  2.701904326956E+01
  2.734327178880E+01  2.767139105026E+01  2.800344774287E+01  2.833948911578E+01
  2.867956298517E+01  2.902371774099E+01  2.937200235389E+01  2.972446638213E+01
  3.008115997872E+01  3.044213389846E+01  3.080743950524E+01  3.117712877931E+01
  3.155125432466E+01  3.192986937655E+01  3.231302780907E+01  3.270078414278E+01
  3.309319355250E+01  3.349031187513E+01  3.389219561763E+01  3.429890196504E+01
  3.471048878862E+01  3.512701465408E+01  3.554853882993E+01  3.597512129589E+01
  3.640682275144E+01  3.684370462446E+01  3.728582907995E+01  3.773325902891E+01
  3.818605813726E+01  3.864429083490E+01  3.910802232492E+01  3.957731859282E+01
  4.005224641594E+01  4.053287337293E+01  4.101926785340E+01  4.151149906764E+01
  4.200963705646E+01  4.251375270113E+01  4.302391773355E+01  4.354020474635E+01
  4.406268720331E+01
</grid-data>
</grid>
<valence-charge total-charge="23" is-unscreening-charge="yes"
 rescaled-to-z-pseudo="no">
<radfunc>
<data npts="457">
  5.593491820227E+00  5.597005617354E+00  5.607509559251E+00  5.625033879369E+00
  5.650748166150E+00  5.683558785975E+00  5.725375725973E+00  5.773259986887E+00
  5.827100913124E+00  5.889888030006E+00  5.960659677619E+00  6.037582979330E+00
  6.130547664338E+00  6.227637047847E+00  6.324623213190E+00  6.436331875041E+00
  6.564960107432E+00  6.686876717145E+00  6.823921043645E+00  6.977921675563E+00
  7.150914249183E+00  7.304494411184E+00  7.472942843487E+00  7.657637233846E+00
  7.860068682065E+00  8.081847554279E+00  8.324708674503E+00  8.521805804161E+00
  8.732641771419E+00  8.958093006022E+00  9.199077588862E+00  9.456554488657E+00
  9.731522110241E+00  1.002501600363E+01  1.033810555777E+01  1.067188947443E+01
  1.102748978583E+01  1.140604414457E+01  1.167173077626E+01  1.194846541685E+01
  1.223658284107E+01  1.253641258157E+01  1.284827647048E+01  1.317248585621E+01
  1.350933846503E+01  1.385911487568E+01  1.422207457392E+01  1.459845155278E+01
  1.498844942388E+01  1.539223600506E+01  1.580993734987E+01  1.624163118604E+01
  1.668733973232E+01  1.714702186641E+01  1.762056462179E+01  1.810777399782E+01
  1.860836507600E+01  1.912195144610E+01  1.964803395959E+01  2.018598884399E+01
  2.073505523164E+01  2.129432218017E+01  2.186271528909E+01  2.243898304918E+01
  2.302168309786E+01  2.360916859492E+01  2.419957497915E+01  2.449522818681E+01
  2.479080741722E+01  2.508601294937E+01  2.538052931107E+01  2.567402500820E+01
  2.596615228866E+01  2.625654694552E+01  2.654482816395E+01  2.683059841684E+01
  2.711344341421E+01  2.739293211172E+01  2.766861678383E+01  2.794003316734E+01
  2.820670068114E+01  2.846812272818E+01  2.872378708578E+01  2.897316639043E+01
  2.921571872325E+01  2.945088830228E+01  2.967810628760E+01  2.989679170520E+01
  3.010635249532E+01  3.030618669049E+01  3.049568372835E+01  3.067422590372E+01
  3.084118996376E+01  3.099594884944E+01  3.113787358581E+01  3.126633532238E+01
  3.138070752419E+01  3.148036831268E+01  3.156470295437E+01  3.163310649386E+01
  3.168498652587E+01  3.171976609983E+01  3.173688674804E+01  3.173581162717E+01
  3.171602876014E+01  3.167705436385E+01  3.161843624572E+01  3.153975724963E+01
  3.144063873000E+01  3.132074402985E+01  3.117978193705E+01  3.101751009040E+01
  3.083373830514E+01  3.062833178597E+01  3.040121419353E+01  3.015237052928E+01
  2.988184980237E+01  2.958976744164E+01  2.927630741543E+01  2.894172402235E+01
  2.858634331657E+01  2.821056413297E+01  2.781485867916E+01  2.739977266396E+01
  2.696592493563E+01  2.651400660643E+01  2.604477964533E+01  2.555907492556E+01
  2.505778971965E+01  2.454188464092E+01  2.401238003727E+01  2.347035185019E+01
  2.291692695933E+01  2.235327804029E+01  2.178061797093E+01  2.120019382826E+01
  2.061328052512E+01  2.002117414157E+01  1.942518501165E+01  1.882663063038E+01
  1.822682844944E+01  1.762708863202E+01  1.702870683834E+01  1.643295711303E+01
  1.584108494350E+01  1.525430055583E+01  1.467377250989E+01  1.410062165054E+01
  1.353591546499E+01  1.298066288969E+01  1.243580960257E+01  1.190223382872E+01
  1.138074268010E+01  1.087206904289E+01  1.037686901912E+01  9.895719924110E+00
  9.429118836122E+00  8.977481691480E+00  8.541142915860E+00  8.120355581393E+00
  7.715292078972E+00  7.326045295795E+00  6.952630289380E+00  6.594986451387E+00
  6.252980158105E+00  5.926407906436E+00  5.614999931745E+00  5.318424301812E+00
  5.036293022929E+00  4.768174780648E+00  4.513611107986E+00  4.272122659326E+00
  4.043212101995E+00  3.826369281064E+00  3.621076120137E+00  3.426814127756E+00
  3.243072715506E+00  3.069350960222E+00  2.905159288186E+00  2.750020782086E+00
  2.603472314469E+00  2.465065464702E+00  2.334367246400E+00  2.210960659475E+00
  2.094445082045E+00  1.984436517019E+00  1.880567707741E+00  1.782488136518E+00
  1.689863919247E+00  1.602377608717E+00  1.519727918444E+00  1.441629378185E+00
  1.367811931529E+00  1.298020485215E+00  1.232014419086E+00  1.169567064851E+00
  1.110465161089E+00  1.054508291258E+00  1.001508310768E+00  9.512887685389E-01
  9.036843278675E-01  8.585401908030E-01  8.157115297282E-01  7.750629293002E-01
  7.364678414399E-01  6.998080556192E-01  6.649731862859E-01  6.318601789009E-01
  6.003728357234E-01  5.704213621782E-01  5.419219343682E-01  5.147962880521E-01
  4.889713291970E-01  4.643787660274E-01  4.409547623332E-01  4.186396116586E-01
  3.973774318811E-01  3.771158795919E-01  3.578058836089E-01  3.394013968945E-01
  3.218591661011E-01  3.051385179332E-01  2.892011615051E-01  2.740110057841E-01
  2.595339913998E-01  2.457379358442E-01  2.325923912925E-01  2.200685142167E-01
  2.081389459930E-01  1.967777037340E-01  1.859600806009E-01  1.756625548840E-01
  1.658627071711E-01  1.565391449559E-01  1.476714340742E-01  1.392400363889E-01
  1.312262531809E-01  1.236121737347E-01  1.163806286437E-01  1.095151473906E-01
  1.029999197934E-01  9.681976093434E-02  9.096007921867E-02  8.540684724867E-02
  8.014657520764E-02  7.516628648895E-02  7.045349532370E-02  6.599618618440E-02
  6.178279476398E-02  5.780219034993E-02  5.404365943251E-02  5.049689040410E-02
  4.715195922331E-02  4.399931593058E-02  4.102977193326E-02  3.823448794946E-02
  3.560496256647E-02  3.313302134125E-02  3.081080639480E-02  2.863076645856E-02
  2.658564733788E-02  2.466848276357E-02  2.287258560683E-02  2.119153943658E-02
  1.961919039997E-02  1.814963940844E-02  1.677723461162E-02  1.549656414121E-02
  1.430244910610E-02  1.318993681873E-02  1.215429423167E-02  1.119100156226E-02
  1.029574608267E-02  9.464416052323E-03  8.693094770187E-03  7.978054725267E-03
  7.315751825356E-03  6.702819686096E-03  6.136063965071E-03  5.612456728592E-03
  5.129130841983E-03  4.683374377495E-03  4.272625037175E-03  3.894464591158E-03
  3.546613334668E-03  3.226924569569E-03  2.933379118441E-03  2.664079880897E-03
  2.417246443166E-03  2.191209752848E-03  1.984406871206E-03  1.795375815490E-03
  1.622750503509E-03  1.465255812166E-03  1.321702760880E-03  1.190983829815E-03
  1.072068421741E-03  9.639984750704E-04  8.658842343145E-04  7.769001828469E-04
  6.962811415170E-04  6.233185353257E-04  5.573568291107E-04  4.977901319917E-04
  4.440589692186E-04  3.956472190645E-04  3.520792115211E-04  3.129169847822E-04
  2.777576948633E-04  2.462311731844E-04  2.179976265419E-04  1.927454736173E-04
  1.701893119886E-04  1.500680095320E-04  1.321429141060E-04  1.161961754842E-04
  1.020291736431E-04  8.946104769144E-05  7.832731994330E-05  6.847860988272E-05
  5.977943301512E-05  5.210707986302E-05  4.535057061688E-05  3.940968120022E-05
  3.419403674317E-05  2.962226867945E-05  2.562123188648E-05  2.212527847598E-05
  1.907558501455E-05  1.641953011016E-05  1.411011944311E-05  1.210545545099E-05
  1.036824899697E-05  8.865370462967E-06  7.567437813569E-06  6.448439276644E-06
  5.485388381702E-06  4.658009190133E-06  3.948449642155E-06  3.341021034991E-06
  2.821961735620E-06  2.379223319868E-06  2.002277417674E-06  1.681941632034E-06
  1.410222986355E-06  1.180177441494E-06  9.857841092841E-07  8.218328736783E-07
  6.838242133577E-07  5.678801004445E-07  4.706649285572E-07  3.893154995180E-07
  3.213791713248E-07  2.647593403144E-07  2.176674975729E-07  1.785811634616E-07
  1.462070645129E-07  1.194489738504E-07  9.737968967183E-08  7.921667622168E-08
  6.430093809955E-08  5.207874178411E-08  4.208583798356E-08  3.393387497137E-08
  2.729872655913E-08  2.191048894200E-08  1.754492846968E-08  1.401618763213E-08
  1.117057933281E-08  8.881320032252E-09  7.044070788360E-09  5.573171654288E-09
  4.398469598418E-09  3.462653147311E-09  2.719018507044E-09  2.129602118002E-09
  1.663623574249E-09  1.296190712981E-09  1.007225565698E-09  7.805758658653E-10
  6.032820248747E-10  4.649740078373E-10  3.573764442393E-10  2.739036692594E-10
  2.093292760770E-10  1.595172275574E-10  1.212036808402E-10  9.182046832142E-11
  6.935269573425E-11  5.222419999635E-11  3.920568926392E-11  2.934129420747E-11
  2.189001825111E-11  1.627920746560E-11  1.206768711687E-11  8.916648085898E-12
  6.566726728786E-12  4.820018444918E-12  3.526008696372E-12  2.570604347425E-12
  1.867610495631E-12  1.352129801477E-12  9.754680412618E-13  7.012156916174E-13
  5.022445488329E-13  3.584138074394E-13  2.548242522992E-13  1.804943884926E-13
  1.273601966115E-13  8.952219375495E-14  6.268077433969E-14  4.371435216530E-14
  3.036539692896E-14  2.100767614521E-14  1.447437629507E-14  9.931684157941E-15
  6.786178496334E-15  4.617265790268E-15  3.128090465567E-15  2.110016805019E-15
  1.417038928638E-15  9.474225327767E-16  6.305916651037E-16  4.178030243109E-16
  2.755432233755E-16  1.808749281562E-16  1.181715361592E-16  7.683663929484E-17
  4.971868278698E-17  3.201408857500E-17  2.051195918624E-17  1.307649972875E-17
  8.294072282534E-18  5.232068275859E-18  3.284469986115E-18  2.051006126881E-18
  1.273945078108E-18  7.870249440405E-19  4.835617048694E-19  2.954690876216E-19
  1.795310595975E-19  1.084687351075E-19  6.515927839531E-20  3.891552831474E-20
  2.310527676949E-20  0.000000000000E+00  0.000000000000E+00  0.000000000000E+00
  0.000000000000E+00  0.000000000000E+00  0.000000000000E+00  0.000000000000E+00
  0.000000000000E+00  0.000000000000E+00  0.000000000000E+00  0.000000000000E+00
  0.000000000000E+00
</data>
</radfunc>
</valence-charge>
<pseudocore-charge matching-radius="0.702155239089"
 number-of-continuous-derivatives="4">
<annotation model-charge-form="Teter function with specified parameters" />
<radfunc>
<data npts="290">
  1.892310656356E+02  1.892139688409E+02  1.891628633045E+02  1.890776101521E+02
  1.889525346571E+02  1.887929777402E+02  1.885896808128E+02  1.883569656660E+02
  1.880954010720E+02  1.877905073050E+02  1.874470101535E+02  1.870738571748E+02
  1.866231655267E+02  1.861527980532E+02  1.856832536271E+02  1.851428269962E+02
  1.845210618654E+02  1.839322403187E+02  1.832709278060E+02  1.825284997572E+02
  1.816953860553E+02  1.809565166259E+02  1.801469139762E+02  1.792601634794E+02
  1.782893436009E+02  1.772270019716E+02  1.760651341802E+02  1.751232834214E+02
  1.741168070739E+02  1.730416882825E+02  1.718937247390E+02  1.706685305940E+02
  1.693615405466E+02  1.679680165023E+02  1.664830572360E+02  1.649016115477E+02
  1.632184954449E+02  1.614284139411E+02  1.601729472896E+02  1.588659430017E+02
  1.575057880607E+02  1.560908700089E+02  1.546195833093E+02  1.530903364310E+02
  1.515015597019E+02  1.498517139786E+02  1.481393001766E+02  1.463628697080E+02
  1.445210358671E+02  1.426124862037E+02  1.406359959181E+02  1.385904423056E+02
  1.364748202726E+02  1.342882589345E+02  1.320300392973E+02  1.296996130086E+02
  1.272966221511E+02  1.248209200308E+02  1.222725928918E+02  1.196519824669E+02
  1.169597092425E+02  1.141966962905E+02  1.113641934805E+02  1.084638018524E+02
  1.054974978859E+02  1.024676573615E+02  9.937707845736E+01  9.781000747133E+01
  9.622900368121E+01  9.463454516074E+01  9.302714018104E+01  9.140732772062E+01
  8.977567792869E+01  8.813279253734E+01  8.647930521712E+01  8.481588187105E+01
  8.314322086164E+01  8.146205316522E+01  7.977314244805E+01  7.807728505829E+01
  7.637530992798E+01  7.466807837904E+01  7.295648382720E+01  7.124145137791E+01
  6.952393730810E+01  6.780492842790E+01  6.608544131637E+01  6.436652142563E+01
  6.264924204764E+01  6.093470313864E+01  5.922402999594E+01  5.751837178274E+01
  5.581889989655E+01  5.412680617773E+01  5.244330095486E+01  5.076961092465E+01
  4.910697686452E+01  4.745665117703E+01  4.581989526612E+01  4.419797674605E+01
  4.259216648525E+01  4.100373548803E+01  3.943395161879E+01  3.788407617439E+01
  3.635536031180E+01  3.484904133982E+01  3.336633888492E+01  3.190845094314E+01
  3.047654983150E+01  2.907177805415E+01  2.769524410030E+01  2.634801819265E+01
  2.503112800685E+01  2.374555438442E+01  2.249222706314E+01  2.127202045055E+01
  2.008574946815E+01  1.893416549499E+01  1.781795244086E+01  1.673772298071E+01
  1.569401498254E+01  1.468728816220E+01  1.371792099880E+01  1.278620794481E+01
  1.189235696490E+01  1.103648743696E+01  1.021862844826E+01  9.438717518135E+00
  8.696599777137E+00  7.992027630474E+00  7.324660930856E+00  6.694067682821E+00
  6.099725297026E+00  5.541022408844E+00  5.017261271028E+00  4.527660725117E+00
  4.071359750695E+00  3.647421585706E+00  3.254838404647E+00  2.892536534871E+00
  2.559382184343E+00  2.254187647162E+00  1.975717946094E+00  1.722697864334E+00
  1.493819311835E+00  1.287748965034E+00  1.103136112607E+00  9.386206344318E-01
  7.928410360289E-01  6.644424568786E-01  5.520845680197E-01  4.544492725850E-01
  3.702481224082E-01  2.982293647199E-01  2.371845353105E-01  1.859545184430E-01
  1.434349992869E-01  1.085812417195E-01  8.041213297243E-02  5.801344670827E-02
  4.054028758378E-02  2.721869302797E-02  1.734638162318E-02  1.029265188008E-02
  5.497450044003E-03  2.469640533593E-03  7.845273312385E-04  8.068873541964E-05
  5.620095386203E-05  4.643376671786E-04  1.108842544040E-03  1.838879385874E-03
  2.543769809623E-03  3.147630886740E-03  3.604024763474E-03  3.890728895411E-03
  4.004729139513E-03  3.957528666273E-03  3.770853700841E-03  3.472822803568E-03
  3.094630192617E-03  2.667776025783E-03  2.221858208100E-03  1.782921848562E-03
  1.372344659151E-03  1.006220080953E-03  6.951854131927E-04  4.446303227294E-04
  2.552123339801E-04  1.236006179378E-04  4.336782771520E-05  5.951897189799E-06
  1.615464369390E-06  2.033954152869E-05  5.259968491367E-05  8.998651234297E-05
  1.256471479907E-04  1.545391346270E-04  1.735026198383E-04  1.811693121391E-04
  1.777370392384E-04  1.646461133328E-04  1.441977225525E-04  1.191550816651E-04
  9.236521783931E-05  6.643343498895E-05  4.347432970458E-05  2.495355038754E-05
  1.162424687575E-05  3.552334127571E-06  2.162167079219E-07  6.602683343126E-07
  3.677680453107E-06  7.997543894238E-06  1.245314530568E-05  1.611306492740E-05
  1.836309656998E-05  1.893441408516E-05  1.788082086236E-05  1.551439893771E-05
  1.231362173828E-05  8.820456638884E-06  5.542932621550E-06  2.877215663282E-06
  1.058893600186E-06  1.476706155546E-07  0.000000000000E+00  0.000000000000E+00
  0.000000000000E+00  0.000000000000E+00  0.000000000000E+00  0.000000000000E+00
  0.000000000000E+00  0.000000000000E+00  0.000000000000E+00  0.000000000000E+00
  0.000000000000E+00  0.000000000000E+00  0.000000000000E+00  0.000000000000E+00
  0.000000000000E+00  0.000000000000E+00  0.000000000000E+00  0.000000000000E+00
  0.000000000000E+00  0.000000000000E+00  0.000000000000E+00  0.000000000000E+00
  0.000000000000E+00  0.000000000000E+00  0.000000000000E+00  0.000000000000E+00
  0.000000000000E+00  0.000000000000E+00  0.000000000000E+00  0.000000000000E+00
  0.000000000000E+00  0.000000000000E+00  0.000000000000E+00  0.000000000000E+00
  0.000000000000E+00  0.000000000000E+00  0.000000000000E+00  0.000000000000E+00
  0.000000000000E+00  0.000000000000E+00  0.000000000000E+00  0.000000000000E+00
  0.000000000000E+00  0.000000000000E+00  0.000000000000E+00  0.000000000000E+00
  0.000000000000E+00  0.000000000000E+00  0.000000000000E+00  0.000000000000E+00
  0.000000000000E+00  0.000000000000E+00  0.000000000000E+00  0.000000000000E+00
  0.000000000000E+00  0.000000000000E+00  0.000000000000E+00  0.000000000000E+00
  0.000000000000E+00  0.000000000000E+00  0.000000000000E+00  0.000000000000E+00
  0.000000000000E+00  0.000000000000E+00
</data>
</radfunc>
</pseudocore-charge>
<semilocal-potentials set="lj">
<slps n="5" l="s" j="0.5" rc="1.40249998692" eref="-5.77779506183">
<radfunc>
<data npts="290">
 -1.932390004273E+01 -1.932570379737E+01 -1.933109407716E+01 -1.934008115227E+01
 -1.935325513996E+01 -1.937004200733E+01 -1.939139993240E+01 -1.941580618780E+01
 -1.944318430191E+01 -1.947502606854E+01 -1.951080728321E+01 -1.954956740935E+01
 -1.959622908710E+01 -1.964475059118E+01 -1.969300736626E+01 -1.974832756162E+01
 -1.981168221869E+01 -1.987139389534E+01 -1.993812671764E+01 -2.001263125423E+01
 -2.009571881179E+01 -2.016895243585E+01 -2.024870933269E+01 -2.033548550682E+01
 -2.042979757858E+01 -2.053217992327E+01 -2.064318082113E+01 -2.073242243688E+01
 -2.082706170823E+01 -2.092733404331E+01 -2.103347180585E+01 -2.114570190901E+01
 -2.126424307441E+01 -2.138930273583E+01 -2.152107356989E+01 -2.165972963931E+01
 -2.180542213861E+01 -2.195827473775E+01 -2.206420078856E+01 -2.217336820644E+01
 -2.228578656249E+01 -2.240145637356E+01 -2.252036828245E+01 -2.264250221076E+01
 -2.276782648707E+01 -2.289629695363E+01 -2.302785605489E+01 -2.316243191177E+01
 -2.329993738599E+01 -2.344026913885E+01 -2.358330668965E+01 -2.372891147864E+01
 -2.387692594016E+01 -2.402717259150E+01 -2.417945314315E+01 -2.433354763635E+01
 -2.448921361373E+01 -2.464618532874E+01 -2.480417299959E+01 -2.496286211324E+01
 -2.512191278462E+01 -2.528095917634E+01 -2.543960898374E+01 -2.559744299001E+01
 -2.575401469587E+01 -2.590885002839E+01 -2.606144713354E+01 -2.613674189381E+01
 -2.621127625686E+01 -2.628497963969E+01 -2.635777971763E+01 -2.642960242904E+01
 -2.650037198167E+01 -2.657001086082E+01 -2.663843983922E+01 -2.670557798889E+01
 -2.677134269488E+01 -2.683564967108E+01 -2.689841297810E+01 -2.695954504340E+01
 -2.701895668374E+01 -2.707655712997E+01 -2.713225405444E+01 -2.718595360100E+01
 -2.723756041782E+01 -2.728697769314E+01 -2.733410719408E+01 -2.737884930871E+01
 -2.742110309153E+01 -2.746076631251E+01 -2.749773550994E+01 -2.753190604719E+01
 -2.756317217372E+01 -2.759142709040E+01 -2.761656301941E+01 -2.763847127903E+01
 -2.765704236338E+01 -2.767216602748E+01 -2.768373137780E+01 -2.769162696851E+01
 -2.769574090371E+01 -2.769596094588E+01 -2.769217463075E+01 -2.768426938877E+01
 -2.767213267354E+01 -2.765565209734E+01 -2.763471557388E+01 -2.760921146875E+01
 -2.757902875746E+01 -2.754405719158E+01 -2.750418747295E+01 -2.745931143637E+01
 -2.740932224085E+01 -2.735411456976E+01 -2.729358484017E+01 -2.722763142156E+01
 -2.715615486438E+01 -2.707905813884E+01 -2.699624688433E+01 -2.690762967023E+01
 -2.681311826862E+01 -2.671262793993E+01 -2.660607773238E+01 -2.649339079666E+01
 -2.637449471718E+01 -2.624932186178E+01 -2.611780975217E+01 -2.597990145750E+01
 -2.583554601436E+01 -2.568469887681E+01 -2.552732240079E+01 -2.536338636824E+01
 -2.519286855680E+01 -2.501575536262E+01 -2.483204248444E+01 -2.464173567922E+01
 -2.444485160083E+01 -2.424141873567E+01 -2.403147845141E+01 -2.381508617765E+01
 -2.359231274075E+01 -2.336324587875E+01 -2.312799196648E+01 -2.288667798631E+01
 -2.263945378511E+01 -2.238649466494E+01 -2.212800436179E+01 -2.186421847453E+01