Cl    ONCVPSP-3.3.0  r_core=   1.40128   1.56009   1.80017
17.0000     15.0000      180503    zatom,zion,pspd
8 -116133   2     4   600     0    pspcod,pspxc,lmax,lloc,mmax,r2well
5.99000000  0.00000000  0.00000000    rchrg fchrg qchrg
2     2     2     0    nproj
3     1           extension_switch
3     3     0    nprojso
0                        -7.7776235080988D+00 -1.7876626321449D+00
1  0.0000000000000D+00 -9.6702090779388D-11  1.0536040928599D-09
2  1.0000000000000D-02  7.8966757177965D-02 -6.4205486912434D-02
3  2.0000000000000D-02  1.5774007891613D-01 -1.2803600566964D-01
4  3.0000000000000D-02  2.3612720195083D-01 -1.9111895031786D-01
5  4.0000000000000D-02  3.1393670415488D-01 -2.5308641780806D-01
6  5.0000000000000D-02  3.9097916709140D-01 -3.1357750597651D-01
7  6.0000000000000D-02  4.6706782901970D-01 -3.7224054812042D-01
8  7.0000000000000D-02  5.4201922528574D-01 -4.2873526429126D-01
9  8.0000000000000D-02  6.1565381312603D-01 -4.8273481048128D-01
10  9.0000000000000D-02  6.8779657803271D-01 -5.3392770816672D-01
11  1.0000000000000D-01  7.5827761896648D-01 -5.8201963817311D-01
12  1.1000000000000D-01  8.2693270986215D-01 -6.2673508452336D-01
13  1.2000000000000D-01  8.9360383504608D-01 -6.6781881579154D-01
14  1.3000000000000D-01  9.5813969637473D-01 -7.0503719348847D-01
15  1.4000000000000D-01  1.0203961901052D+00 -7.3817929911854D-01
16  1.5000000000000D-01  1.0802368517216D+00 -7.6705787374056D-01
17  1.6000000000000D-01  1.1375332671599D+00 -7.9151006610660D-01
18  1.7000000000000D-01  1.1921654491015D+00 -8.1139798770842D-01
19  1.8000000000000D-01  1.2440221772300D+00 -8.2660907529939D-01
20  1.9000000000000D-01  1.2930013015777D+00 -8.3705626364730D-01
21  2.0000000000000D-01  1.3390100083117D+00 -8.4267797337990D-01
22  2.1000000000000D-01  1.3819650475306D+00 -8.4343792077877D-01
23  2.2000000000000D-01  1.4217929228600D+00 -8.3932475823166D-01
24  2.3000000000000D-01  1.4584300428361D+00 -8.3035155574162D-01
25  2.4000000000000D-01  1.4918228342656D+00 -8.1655513538993D-01
26  2.5000000000000D-01  1.5219278179316D+00 -7.9799527194021D-01
27  2.6000000000000D-01  1.5487116471809D+00 -7.7475377383424D-01
28  2.7000000000000D-01  1.5721511100870D+00 -7.4693345965476D-01
29  2.8000000000000D-01  1.5922330960170D+00 -7.1465704570684D-01
30  2.9000000000000D-01  1.6089545275539D+00 -6.7806596069162D-01
31  3.0000000000000D-01  1.6223222588321D+00 -6.3731910351430D-01
32  3.1000000000000D-01  1.6323529414282D+00 -5.9259156008431D-01
33  3.2000000000000D-01  1.6390728590272D+00 -5.4407329453681D-01
34  3.3000000000000D-01  1.6425177321345D+00 -4.9196782964259D-01
35  3.4000000000000D-01  1.6427324941491D+00 -4.3649093029246D-01
36  3.5000000000000D-01  1.6397710401392D+00 -3.7786930286058D-01
37  3.6000000000000D-01  1.6336959496763D+00 -3.1633932199125D-01
38  3.7000000000000D-01  1.6245781850857D+00 -2.5214579493915D-01
39  3.8000000000000D-01  1.6124967664688D+00 -1.8554077205185D-01
40  3.9000000000000D-01  1.5975384248334D+00 -1.1678241034417D-01
41  4.0000000000000D-01  1.5797972346536D+00 -4.6133895407886D-02
42  4.1000000000000D-01  1.5593742271516D+00  2.6137574840943D-02
43  4.2000000000000D-01  1.5363769855733D+00  9.9761742818520D-02
44  4.3000000000000D-01  1.5109192236969D+00  1.7446618028886D-01
45  4.4000000000000D-01  1.4831203487968D+00  2.4997711534523D-01
46  4.5000000000000D-01  1.4531050102559D+00  3.2602020052300D-01
47  4.6000000000000D-01  1.4210026350106D+00  4.0232122664558D-01
48  4.7000000000000D-01  1.3869469509996D+00  4.7860678829171D-01
49  4.8000000000000D-01  1.3510754997863D+00  5.5460490788408D-01
50  4.9000000000000D-01  1.3135291395334D+00  6.3004562631533D-01
51  5.0000000000000D-01  1.2744515395251D+00  7.0466156872848D-01
52  5.1000000000000D-01  1.2339886674580D+00  7.7818849454106D-01
53  5.2000000000000D-01  1.1922882707609D+00  8.5036584103512D-01
54  5.3000000000000D-01  1.1494993532513D+00  9.2093726982201D-01
55  5.4000000000000D-01  1.1057716484922D+00  9.8965122522998D-01
56  5.5000000000000D-01  1.0612550912826D+00  1.0562615131584D+00
57  5.6000000000000D-01  1.0160992887867D+00  1.1205279081969D+00
58  5.7000000000000D-01  9.7045299289011D-01  1.1822167958435D+00
59  5.8000000000000D-01  9.2446357545750D-01  1.2411018554707D+00
60  5.9000000000000D-01  8.7827650825580D-01  1.2969647883276D+00
61  6.0000000000000D-01  8.3203484939855D-01  1.3495960933249D+00
62  6.1000000000000D-01  7.8587873825649D-01  1.3987958916842D+00
63  6.2000000000000D-01  7.3994490086647D-01  1.4443747997453D+00
64  6.3000000000000D-01  6.9436616795092D-01  1.4861548473765D+00
65  6.4000000000000D-01  6.4927100773192D-01  1.5239704375339D+00
66  6.5000000000000D-01  6.0478307578454D-01  1.5576693406146D+00
67  6.6000000000000D-01  5.6102078422056D-01  1.5871137153909D+00
68  6.7000000000000D-01  5.1809689252395D-01  1.6121811465116D+00
69  6.8000000000000D-01  4.7611812237059D-01  1.6327656868727D+00
70  6.9000000000000D-01  4.3518479875522D-01  1.6487788916226D+00
71  7.0000000000000D-01  3.9539051971554D-01  1.6601508292013D+00
72  7.1000000000000D-01  3.5682185688589D-01  1.6668310536639D+00
73  7.2000000000000D-01  3.1955808902909D-01  1.6687895216263D+00
74  7.3000000000000D-01  2.8367097058361D-01  1.6660174365291D+00
75  7.4000000000000D-01  2.4922453712493D-01  1.6585280025559D+00
76  7.5000000000000D-01  2.1627494947201D-01  1.6463570704890D+00
77  7.6000000000000D-01  1.8487037797460D-01  1.6295636580520D+00
78  7.7000000000000D-01  1.5505092829507D-01  1.6082303278771D+00
79  7.8000000000000D-01  1.2684860974884D-01  1.5824634071480D+00
80  7.9000000000000D-01  1.0028734699449D-01  1.5523930342118D+00
81  8.0000000000000D-01  7.5383035567933D-02  1.5181730190008D+00
82  8.1000000000000D-01  5.2143641438956D-02  1.4799805059586D+00
83  8.2000000000000D-01  3.0569344434150D-02  1.4380154302957D+00
84  8.3000000000000D-01  1.0652725023487D-02  1.3924997607779D+00
85  8.4000000000000D-01 -7.6210063916702D-03  1.3436765248654D+00
86  8.5000000000000D-01 -2.4273738914810D-02  1.2918086148104D+00
87  8.6000000000000D-01 -3.9334150907595D-02  1.2371773762697D+00
88  8.7000000000000D-01 -5.2837362017454D-02  1.1800809840396D+00
89  8.8000000000000D-01 -6.4824549794195D-02  1.1208326126399D+00
90  8.9000000000000D-01 -7.5342533556307D-02  1.0597584126009D+00
91  9.0000000000000D-01 -8.4443328498395D-02  9.9719530641717D-01
92  9.1000000000000D-01 -9.2183673337924D-02  9.3348862112277D-01
93  9.2000000000000D-01 -9.8624535086001D-02  8.6898957735669D-01
94  9.3000000000000D-01 -1.0383059477880D-01  8.0405265746770D-01
95  9.4000000000000D-01 -1.0786971822729D-01  7.3903287769153D-01
96  9.5000000000000D-01 -1.1081241602564D-01  6.7428299163451D-01
97  9.6000000000000D-01 -1.1273129720054D-01  6.1015065418731D-01
98  9.7000000000000D-01 -1.1370052098237D-01  5.4697557653165D-01
99  9.8000000000000D-01 -1.1379525123120D-01  4.8508670405799D-01
100  9.9000000000000D-01 -1.1309111805622D-01  4.2479944976078D-01
101  1.0000000000000D+00 -1.1166369111896D-01  3.6641301597146D-01
102  1.0100000000000D+00 -1.0958796902369D-01  3.1020783718260D-01
103  1.0200000000000D+00 -1.0693788904849D-01  2.5644317610237D-01
104  1.0300000000000D+00 -1.0378586128090D-01  2.0535490402585D-01
105  1.0400000000000D+00 -1.0020233098224D-01  1.5715349510538D-01
106  1.0500000000000D+00 -9.6255372723138D-02  1.1202226217442D-01
107  1.0600000000000D+00 -9.2010319484036D-02  7.0115859231240D-02
108  1.0700000000000D+00 -8.7529429598616D-02  3.1559073311299D-02
109  1.0800000000000D+00 -8.2871593954060D-02 -3.5540751511708D-03
110  1.0900000000000D+00 -7.8092085472496D-02 -3.5160907518062D-02
111  1.1000000000000D+00 -7.3242352419288D-02 -6.3230325664225D-02
112  1.1100000000000D+00 -6.8369856600159D-02 -8.7762706232790D-02
113  1.1200000000000D+00 -6.3517957066539D-02 -1.0878944618405D-01
114  1.1300000000000D+00 -5.8725839361021D-02 -1.2637216044721D-01
115  1.1400000000000D+00 -5.4028489896660D-02 -1.4060153630137D-01
116  1.1500000000000D+00 -4.9456714508809D-02 -1.5159585398548D-01
117  1.1600000000000D+00 -4.5037199835950D-02 -1.5949918640762D-01
118  1.1700000000000D+00 -4.0792615556610D-02 -1.6447929644215D-01
119  1.1800000000000D+00 -3.6741755315575D-02 -1.6672525151350D-01
120  1.1900000000000D+00 -3.2899713266602D-02 -1.6644478516523D-01
121  1.2000000000000D+00 -2.9278090833069D-02 -1.6386146107205D-01
122  1.2100000000000D+00 -2.5885237392802D-02 -1.5921158687538D-01
123  1.2200000000000D+00 -2.2726529605970D-02 -1.5274079987649D-01
124  1.2300000000000D+00 -1.9804503606894D-02 -1.4470262084101D-01
125  1.2400000000000D+00 -1.7118996464890D-02 -1.3535695625994D-01
126  1.2500000000000D+00 -1.4667310583127D-02 -1.2496837725391D-01
127  1.2600000000000D+00 -1.2444548210710D-02 -1.1380238692542D-01
128  1.2700000000000D+00 -1.0443929489539D-02 -1.0212199265839D-01
129  1.2800000000000D+00 -8.6571096937029D-03 -9.0184379087457D-02
130  1.2900000000000D+00 -7.0744951560297D-03 -7.8237665524068D-02
131  1.3000000000000D+00 -5.6855516089794D-03 -6.6517812070197D-02
132  1.3100000000000D+00 -4.4791002120611D-03 -5.5245718436771D-02
133  1.3200000000000D+00 -3.4435971039923D-03 -4.4624552143553D-02
134  1.3300000000000D+00 -2.5673927956112D-03 -3.4837338916522D-02
135  1.3400000000000D+00 -1.8389682270162D-03 -2.6044843345601D-02
136  1.3500000000000D+00 -1.2471439170973D-03 -1.8383771573226D-02
137  1.3600000000000D+00 -7.8147682901170D-04 -1.1969329981628D-02
138  1.3700000000000D+00 -4.3095486122729D-04 -6.8668165441773D-03
139  1.3800000000000D+00 -1.8698369474862D-04 -3.1448915331782D-03
140  1.3900000000000D+00 -4.6367534633525D-05 -9.3671470741887D-04
141  1.4000000000000D+00  8.6414910859186D-06 -3.3576390668215D-05
142  1.4100000000000D+00  1.0638251231696D-05  9.5108631426150D-05
143  1.4200000000000D+00 -1.3426078850744D-06 -1.3593474999139D-05
144  1.4300000000000D+00 -2.1621237392267D-06 -2.3253878261502D-05
145  1.4400000000000D+00  5.0930285031466D-07  4.8377050746931D-06
146  1.4500000000000D+00  2.3093093762797D-07  2.2537911511476D-06
147  1.4600000000000D+00 -3.1351527187609D-08 -3.8642491019366D-08
148  1.4700000000000D+00  0.0000000000000D+00  0.0000000000000D+00
149  1.4800000000000D+00  0.0000000000000D+00  0.0000000000000D+00
150  1.4900000000000D+00  0.0000000000000D+00  0.0000000000000D+00
151  1.5000000000000D+00  0.0000000000000D+00  0.0000000000000D+00
152  1.5100000000000D+00  0.0000000000000D+00  0.0000000000000D+00
153  1.5200000000000D+00  0.0000000000000D+00  0.0000000000000D+00
154  1.5300000000000D+00  0.0000000000000D+00  0.0000000000000D+00
155  1.5400000000000D+00  0.0000000000000D+00  0.0000000000000D+00
156  1.5500000000000D+00  0.0000000000000D+00  0.0000000000000D+00
157  1.5600000000000D+00  0.0000000000000D+00  0.0000000000000D+00
158  1.5700000000000D+00  0.0000000000000D+00  0.0000000000000D+00
159  1.5800000000000D+00  0.0000000000000D+00  0.0000000000000D+00
160  1.5900000000000D+00  0.0000000000000D+00  0.0000000000000D+00
161  1.6000000000000D+00  0.0000000000000D+00  0.0000000000000D+00
162  1.6100000000000D+00  0.0000000000000D+00  0.0000000000000D+00
163  1.6200000000000D+00  0.0000000000000D+00  0.0000000000000D+00
164  1.6300000000000D+00  0.0000000000000D+00  0.0000000000000D+00
165  1.6400000000000D+00  0.0000000000000D+00  0.0000000000000D+00
166  1.6500000000000D+00  0.0000000000000D+00  0.0000000000000D+00
167  1.6600000000000D+00  0.0000000000000D+00  0.0000000000000D+00
168  1.6700000000000D+00  0.0000000000000D+00  0.0000000000000D+00
169  1.6800000000000D+00  0.0000000000000D+00  0.0000000000000D+00
170  1.6900000000000D+00  0.0000000000000D+00  0.0000000000000D+00
171  1.7000000000000D+00  0.0000000000000D+00  0.0000000000000D+00
172  1.7100000000000D+00  0.0000000000000D+00  0.0000000000000D+00
173  1.7200000000000D+00  0.0000000000000D+00  0.0000000000000D+00
174  1.7300000000000D+00  0.0000000000000D+00  0.0000000000000D+00
175  1.7400000000000D+00  0.0000000000000D+00  0.0000000000000D+00
176  1.7500000000000D+00  0.0000000000000D+00  0.0000000000000D+00
177  1.7600000000000D+00  0.0000000000000D+00  0.0000000000000D+00
178  1.7700000000000D+00  0.0000000000000D+00  0.0000000000000D+00
179  1.7800000000000D+00  0.0000000000000D+00  0.0000000000000D+00
180  1.7900000000000D+00  0.0000000000000D+00  0.0000000000000D+00
181  1.8000000000000D+00  0.0000000000000D+00  0.0000000000000D+00
182  1.8100000000000D+00  0.0000000000000D+00  0.0000000000000D+00
183  1.8200000000000D+00  0.0000000000000D+00  0.0000000000000D+00
184  1.8300000000000D+00  0.0000000000000D+00  0.0000000000000D+00
185  1.8400000000000D+00  0.0000000000000D+00  0.0000000000000D+00
186  1.8500000000000D+00  0.0000000000000D+00  0.0000000000000D+00
187  1.8600000000000D+00  0.0000000000000D+00  0.0000000000000D+00
188  1.8700000000000D+00  0.0000000000000D+00  0.0000000000000D+00
189  1.8800000000000D+00  0.0000000000000D+00  0.0000000000000D+00
190  1.8900000000000D+00  0.0000000000000D+00  0.0000000000000D+00
191  1.9000000000000D+00  0.0000000000000D+00  0.0000000000000D+00
192  1.9100000000000D+00  0.0000000000000D+00  0.0000000000000D+00
193  1.9200000000000D+00  0.0000000000000D+00  0.0000000000000D+00
194  1.9300000000000D+00  0.0000000000000D+00  0.0000000000000D+00
195  1.9400000000000D+00  0.0000000000000D+00  0.0000000000000D+00
196  1.9500000000000D+00  0.0000000000000D+00  0.0000000000000D+00
197  1.9600000000000D+00  0.0000000000000D+00  0.0000000000000D+00
198  1.9700000000000D+00  0.0000000000000D+00  0.0000000000000D+00
199  1.9800000000000D+00  0.0000000000000D+00  0.0000000000000D+00
200  1.9900000000000D+00  0.0000000000000D+00  0.0000000000000D+00
201  2.0000000000000D+00  0.0000000000000D+00  0.0000000000000D+00
202  2.0100000000000D+00  0.0000000000000D+00  0.0000000000000D+00
203  2.0200000000000D+00  0.0000000000000D+00  0.0000000000000D+00
204  2.0300000000000D+00  0.0000000000000D+00  0.0000000000000D+00
205  2.0400000000000D+00  0.0000000000000D+00  0.0000000000000D+00
206  2.0500000000000D+00  0.0000000000000D+00  0.0000000000000D+00
207  2.0600000000000D+00  0.0000000000000D+00  0.0000000000000D+00
208  2.0700000000000D+00  0.0000000000000D+00  0.0000000000000D+00
209  2.0800000000000D+00  0.0000000000000D+00  0.0000000000000D+00
210  2.0900000000000D+00  0.0000000000000D+00  0.0000000000000D+00
211  2.1000000000000D+00  0.0000000000000D+00  0.0000000000000D+00
212  2.1100000000000D+00  0.0000000000000D+00  0.0000000000000D+00
213  2.1200000000000D+00  0.0000000000000D+00  0.0000000000000D+00
214  2.1300000000000D+00  0.0000000000000D+00  0.0000000000000D+00
215  2.1400000000000D+00  0.0000000000000D+00  0.0000000000000D+00
216  2.1500000000000D+00  0.0000000000000D+00  0.0000000000000D+00
217  2.1600000000000D+00  0.0000000000000D+00  0.0000000000000D+00
218  2.1700000000000D+00  0.0000000000000D+00  0.0000000000000D+00
219  2.1800000000000D+00  0.0000000000000D+00  0.0000000000000D+00
220  2.1900000000000D+00  0.0000000000000D+00  0.0000000000000D+00
221  2.2000000000000D+00  0.0000000000000D+00  0.0000000000000D+00
222  2.2100000000000D+00  0.0000000000000D+00  0.0000000000000D+00
223  2.2200000000000D+00  0.0000000000000D+00  0.0000000000000D+00
224  2.2300000000000D+00  0.0000000000000D+00  0.0000000000000D+00
225  2.2400000000000D+00  0.0000000000000D+00  0.0000000000000D+00
226  2.2500000000000D+00  0.0000000000000D+00  0.0000000000000D+00
227  2.2600000000000D+00  0.0000000000000D+00  0.0000000000000D+00
228  2.2700000000000D+00  0.0000000000000D+00  0.0000000000000D+00
229  2.2800000000000D+00  0.0000000000000D+00  0.0000000000000D+00
230  2.2900000000000D+00  0.0000000000000D+00  0.0000000000000D+00
231  2.3000000000000D+00  0.0000000000000D+00  0.0000000000000D+00
232  2.3100000000000D+00  0.0000000000000D+00  0.0000000000000D+00
233  2.3200000000000D+00  0.0000000000000D+00  0.0000000000000D+00
234  2.3300000000000D+00  0.0000000000000D+00  0.0000000000000D+00
235  2.3400000000000D+00  0.0000000000000D+00  0.0000000000000D+00
236  2.3500000000000D+00  0.0000000000000D+00  0.0000000000000D+00
237  2.3600000000000D+00  0.0000000000000D+00  0.0000000000000D+00
238  2.3700000000000D+00  0.0000000000000D+00  0.0000000000000D+00
239  2.3800000000000D+00  0.0000000000000D+00  0.0000000000000D+00
240  2.3900000000000D+00  0.0000000000000D+00  0.0000000000000D+00
241  2.4000000000000D+00  0.0000000000000D+00  0.0000000000000D+00
242  2.4100000000000D+00  0.0000000000000D+00  0.0000000000000D+00
243  2.4200000000000D+00  0.0000000000000D+00  0.0000000000000D+00
244  2.4300000000000D+00  0.0000000000000D+00  0.0000000000000D+00
245  2.4400000000000D+00  0.0000000000000D+00  0.0000000000000D+00
246  2.4500000000000D+00  0.0000000000000D+00  0.0000000000000D+00
247  2.4600000000000D+00  0.0000000000000D+00  0.0000000000000D+00
248  2.4700000000000D+00  0.0000000000000D+00  0.0000000000000D+00
249  2.4800000000000D+00  0.0000000000000D+00  0.0000000000000D+00
250  2.4900000000000D+00  0.0000000000000D+00  0.0000000000000D+00
251  2.5000000000000D+00  0.0000000000000D+00  0.0000000000000D+00
252  2.5100000000000D+00  0.0000000000000D+00  0.0000000000000D+00
253  2.5200000000000D+00  0.0000000000000D+00  0.0000000000000D+00
254  2.5300000000000D+00  0.0000000000000D+00  0.0000000000000D+00
255  2.5400000000000D+00  0.0000000000000D+00  0.0000000000000D+00
256  2.5500000000000D+00  0.0000000000000D+00  0.0000000000000D+00
257  2.5600000000000D+00  0.0000000000000D+00  0.0000000000000D+00
258  2.5700000000000D+00  0.0000000000000D+00  0.0000000000000D+00
259  2.5800000000000D+00  0.0000000000000D+00  0.0000000000000D+00
260  2.5900000000000D+00  0.0000000000000D+00  0.0000000000000D+00
261  2.6000000000000D+00  0.0000000000000D+00  0.0000000000000D+00
262  2.6100000000000D+00  0.0000000000000D+00  0.0000000000000D+00
263  2.6200000000000D+00  0.0000000000000D+00  0.0000000000000D+00
264  2.6300000000000D+00  0.0000000000000D+00  0.0000000000000D+00
265  2.6400000000000D+00  0.0000000000000D+00  0.0000000000000D+00
266  2.6500000000000D+00  0.0000000000000D+00  0.0000000000000D+00
267  2.6600000000000D+00  0.0000000000000D+00  0.0000000000000D+00
268  2.6700000000000D+00  0.0000000000000D+00  0.0000000000000D+00
269  2.6800000000000D+00  0.0000000000000D+00  0.0000000000000D+00
270  2.6900000000000D+00  0.0000000000000D+00  0.0000000000000D+00
271  2.7000000000000D+00  0.0000000000000D+00  0.0000000000000D+00
272  2.7100000000000D+00  0.0000000000000D+00  0.0000000000000D+00
273  2.7200000000000D+00  0.0000000000000D+00  0.0000000000000D+00
274  2.7300000000000D+00  0.0000000000000D+00  0.0000000000000D+00
275  2.7400000000000D+00  0.0000000000000D+00  0.0000000000000D+00
276  2.7500000000000D+00  0.0000000000000D+00  0.0000000000000D+00
277  2.7600000000000D+00  0.0000000000000D+00  0.0000000000000D+00
278  2.7700000000000D+00  0.0000000000000D+00  0.0000000000000D+00
279  2.7800000000000D+00  0.0000000000000D+00  0.0000000000000D+00
280  2.7900000000000D+00  0.0000000000000D+00  0.0000000000000D+00
281  2.8000000000000D+00  0.0000000000000D+00  0.0000000000000D+00
282  2.8100000000000D+00  0.0000000000000D+00  0.0000000000000D+00
283  2.8200000000000D+00  0.0000000000000D+00  0.0000000000000D+00
284  2.8300000000000D+00  0.0000000000000D+00  0.0000000000000D+00
285  2.8400000000000D+00  0.0000000000000D+00  0.0000000000000D+00
286  2.8500000000000D+00  0.0000000000000D+00  0.0000000000000D+00
287  2.8600000000000D+00  0.0000000000000D+00  0.0000000000000D+00
288  2.8700000000000D+00  0.0000000000000D+00  0.0000000000000D+00
289  2.8800000000000D+00  0.0000000000000D+00  0.0000000000000D+00
290  2.8900000000000D+00  0.0000000000000D+00  0.0000000000000D+00
291  2.9000000000000D+00  0.0000000000000D+00  0.0000000000000D+00
292  2.9100000000000D+00  0.0000000000000D+00  0.0000000000000D+00
293  2.9200000000000D+00  0.0000000000000D+00  0.0000000000000D+00
294  2.9300000000000D+00  0.0000000000000D+00  0.0000000000000D+00
295  2.9400000000000D+00  0.0000000000000D+00  0.0000000000000D+00
296  2.9500000000000D+00  0.0000000000000D+00  0.0000000000000D+00
297  2.9600000000000D+00  0.0000000000000D+00  0.0000000000000D+00
298  2.9700000000000D+00  0.0000000000000D+00  0.0000000000000D+00
299  2.9800000000000D+00  0.0000000000000D+00  0.0000000000000D+00
300  2.9900000000000D+00  0.0000000000000D+00  0.0000000000000D+00
301  3.0000000000000D+00  0.0000000000000D+00  0.0000000000000D+00
302  3.0100000000000D+00  0.0000000000000D+00  0.0000000000000D+00
303  3.0200000000000D+00  0.0000000000000D+00  0.0000000000000D+00
304  3.0300000000000D+00  0.0000000000000D+00  0.0000000000000D+00
305  3.0400000000000D+00  0.0000000000000D+00  0.0000000000000D+00
306  3.0500000000000D+00  0.0000000000000D+00  0.0000000000000D+00
307  3.0600000000000D+00  0.0000000000000D+00  0.0000000000000D+00
308  3.0700000000000D+00  0.0000000000000D+00  0.0000000000000D+00
309  3.0800000000000D+00  0.0000000000000D+00  0.0000000000000D+00
310  3.0900000000000D+00  0.0000000000000D+00  0.0000000000000D+00
311  3.1000000000000D+00  0.0000000000000D+00  0.0000000000000D+00
312  3.1100000000000D+00  0.0000000000000D+00  0.0000000000000D+00
313  3.1200000000000D+00  0.0000000000000D+00  0.0000000000000D+00
314  3.1300000000000D+00  0.0000000000000D+00  0.0000000000000D+00
315  3.1400000000000D+00  0.0000000000000D+00  0.0000000000000D+00
316  3.1500000000000D+00  0.0000000000000D+00  0.0000000000000D+00
317  3.1600000000000D+00  0.0000000000000D+00  0.0000000000000D+00
318  3.1700000000000D+00  0.0000000000000D+00  0.0000000000000D+00
319  3.1800000000000D+00  0.0000000000000D+00  0.0000000000000D+00
320  3.1900000000000D+00  0.0000000000000D+00  0.0000000000000D+00
321  3.2000000000000D+00  0.0000000000000D+00  0.0000000000000D+00
322  3.2100000000000D+00  0.0000000000000D+00  0.0000000000000D+00
323  3.2200000000000D+00  0.0000000000000D+00  0.0000000000000D+00
324  3.2300000000000D+00  0.0000000000000D+00  0.0000000000000D+00
325  3.2400000000000D+00  0.0000000000000D+00  0.0000000000000D+00
326  3.2500000000000D+00  0.0000000000000D+00  0.0000000000000D+00
327  3.2600000000000D+00  0.0000000000000D+00  0.0000000000000D+00
328  3.2700000000000D+00  0.0000000000000D+00  0.0000000000000D+00
329  3.2800000000000D+00  0.0000000000000D+00  0.0000000000000D+00
330  3.2900000000000D+00  0.0000000000000D+00  0.0000000000000D+00
331  3.3000000000000D+00  0.0000000000000D+00  0.0000000000000D+00
332  3.3100000000000D+00  0.0000000000000D+00  0.0000000000000D+00
333  3.3200000000000D+00  0.0000000000000D+00  0.0000000000000D+00
334  3.3300000000000D+00  0.0000000000000D+00  0.0000000000000D+00
335  3.3400000000000D+00  0.0000000000000D+00  0.0000000000000D+00
336  3.3500000000000D+00  0.0000000000000D+00  0.0000000000000D+00
337  3.3600000000000D+00  0.0000000000000D+00  0.0000000000000D+00
338  3.3700000000000D+00  0.0000000000000D+00  0.0000000000000D+00
339  3.3800000000000D+00  0.0000000000000D+00  0.0000000000000D+00
340  3.3900000000000D+00  0.0000000000000D+00  0.0000000000000D+00
341  3.4000000000000D+00  0.0000000000000D+00  0.0000000000000D+00
342  3.4100000000000D+00  0.0000000000000D+00  0.0000000000000D+00
343  3.4200000000000D+00  0.0000000000000D+00  0.0000000000000D+00
344  3.4300000000000D+00  0.0000000000000D+00  0.0000000000000D+00
345  3.4400000000000D+00  0.0000000000000D+00  0.0000000000000D+00
346  3.4500000000000D+00  0.0000000000000D+00  0.0000000000000D+00
347  3.4600000000000D+00  0.0000000000000D+00  0.0000000000000D+00
348  3.4700000000000D+00  0.0000000000000D+00  0.0000000000000D+00
349  3.4800000000000D+00  0.0000000000000D+00  0.0000000000000D+00
350  3.4900000000000D+00  0.0000000000000D+00  0.0000000000000D+00
351  3.5000000000000D+00  0.0000000000000D+00  0.0000000000000D+00
352  3.5100000000000D+00  0.0000000000000D+00  0.0000000000000D+00
353  3.5200000000000D+00  0.0000000000000D+00  0.0000000000000D+00
354  3.5300000000000D+00  0.0000000000000D+00  0.0000000000000D+00
355  3.5400000000000D+00  0.0000000000000D+00  0.0000000000000D+00
356  3.5500000000000D+00  0.0000000000000D+00  0.0000000000000D+00
357  3.5600000000000D+00  0.0000000000000D+00  0.0000000000000D+00
358  3.5700000000000D+00  0.0000000000000D+00  0.0000000000000D+00
359  3.5800000000000D+00  0.0000000000000D+00  0.0000000000000D+00
360  3.5900000000000D+00  0.0000000000000D+00  0.0000000000000D+00
361  3.6000000000000D+00  0.0000000000000D+00  0.0000000000000D+00
362  3.6100000000000D+00  0.0000000000000D+00  0.0000000000000D+00
363  3.6200000000000D+00  0.0000000000000D+00  0.0000000000000D+00
364  3.6300000000000D+00  0.0000000000000D+00  0.0000000000000D+00
365  3.6400000000000D+00  0.0000000000000D+00  0.0000000000000D+00
366  3.6500000000000D+00  0.0000000000000D+00  0.0000000000000D+00
367  3.6600000000000D+00  0.0000000000000D+00  0.0000000000000D+00
368  3.6700000000000D+00  0.0000000000000D+00  0.0000000000000D+00
369  3.6800000000000D+00  0.0000000000000D+00  0.0000000000000D+00
370  3.6900000000000D+00  0.0000000000000D+00  0.0000000000000D+00
371  3.7000000000000D+00  0.0000000000000D+00  0.0000000000000D+00
372  3.7100000000000D+00  0.0000000000000D+00  0.0000000000000D+00
373  3.7200000000000D+00  0.0000000000000D+00  0.0000000000000D+00
374  3.7300000000000D+00  0.0000000000000D+00  0.0000000000000D+00
375  3.7400000000000D+00  0.0000000000000D+00  0.0000000000000D+00
376  3.7500000000000D+00  0.0000000000000D+00  0.0000000000000D+00
377  3.7600000000000D+00  0.0000000000000D+00  0.0000000000000D+00
378  3.7700000000000D+00  0.0000000000000D+00  0.0000000000000D+00
379  3.7800000000000D+00  0.0000000000000D+00  0.0000000000000D+00
380  3.7900000000000D+00  0.0000000000000D+00  0.0000000000000D+00
381  3.8000000000000D+00  0.0000000000000D+00  0.0000000000000D+00
382  3.8100000000000D+00  0.0000000000000D+00  0.0000000000000D+00
383  3.8200000000000D+00  0.0000000000000D+00  0.0000000000000D+00
384  3.8300000000000D+00  0.0000000000000D+00  0.0000000000000D+00
385  3.8400000000000D+00  0.0000000000000D+00  0.0000000000000D+00
386  3.8500000000000D+00  0.0000000000000D+00  0.0000000000000D+00
387  3.8600000000000D+00  0.0000000000000D+00  0.0000000000000D+00
388  3.8700000000000D+00  0.0000000000000D+00  0.0000000000000D+00
389  3.8800000000000D+00  0.0000000000000D+00  0.0000000000000D+00
390  3.8900000000000D+00  0.0000000000000D+00  0.0000000000000D+00
391  3.9000000000000D+00  0.0000000000000D+00  0.0000000000000D+00
392  3.9100000000000D+00  0.0000000000000D+00  0.0000000000000D+00
393  3.9200000000000D+00  0.0000000000000D+00  0.0000000000000D+00
394  3.9300000000000D+00  0.0000000000000D+00  0.0000000000000D+00
395  3.9400000000000D+00  0.0000000000000D+00  0.0000000000000D+00
396  3.9500000000000D+00  0.0000000000000D+00  0.0000000000000D+00
397  3.9600000000000D+00  0.0000000000000D+00  0.0000000000000D+00
398  3.9700000000000D+00  0.0000000000000D+00  0.0000000000000D+00
399  3.9800000000000D+00  0.0000000000000D+00  0.0000000000000D+00
400  3.9900000000000D+00  0.0000000000000D+00  0.0000000000000D+00
401  4.0000000000000D+00  0.0000000000000D+00  0.0000000000000D+00
402  4.0100000000000D+00  0.0000000000000D+00  0.0000000000000D+00
403  4.0200000000000D+00  0.0000000000000D+00  0.0000000000000D+00
404  4.0300000000000D+00  0.0000000000000D+00  0.0000000000000D+00
405  4.0400000000000D+00  0.0000000000000D+00  0.0000000000000D+00
406  4.0500000000000D+00  0.0000000000000D+00  0.0000000000000D+00
407  4.0600000000000D+00  0.0000000000000D+00  0.0000000000000D+00
408  4.0700000000000D+00  0.0000000000000D+00  0.0000000000000D+00
409  4.0800000000000D+00  0.0000000000000D+00  0.0000000000000D+00
410  4.0900000000000D+00  0.0000000000000D+00  0.0000000000000D+00
411  4.1000000000000D+00  0.0000000000000D+00  0.0000000000000D+00
412  4.1100000000000D+00  0.0000000000000D+00  0.0000000000000D+00
413  4.1200000000000D+00  0.0000000000000D+00  0.0000000000000D+00
414  4.1300000000000D+00  0.0000000000000D+00  0.0000000000000D+00
415  4.1400000000000D+00  0.0000000000000D+00  0.0000000000000D+00
416  4.1500000000000D+00  0.0000000000000D+00  0.0000000000000D+00
417  4.1600000000000D+00  0.0000000000000D+00  0.0000000000000D+00
418  4.1700000000000D+00  0.0000000000000D+00  0.0000000000000D+00
419  4.1800000000000D+00  0.0000000000000D+00  0.0000000000000D+00
420  4.1900000000000D+00  0.0000000000000D+00  0.0000000000000D+00
421  4.2000000000000D+00  0.0000000000000D+00  0.0000000000000D+00
422  4.2100000000000D+00  0.0000000000000D+00  0.0000000000000D+00
423  4.2200000000000D+00  0.0000000000000D+00  0.0000000000000D+00
424  4.2300000000000D+00  0.0000000000000D+00  0.0000000000000D+00
425  4.2400000000000D+00  0.0000000000000D+00  0.0000000000000D+00
426  4.2500000000000D+00  0.0000000000000D+00  0.0000000000000D+00
427  4.2600000000000D+00  0.0000000000000D+00  0.0000000000000D+00
428  4.2700000000000D+00  0.0000000000000D+00  0.0000000000000D+00
429  4.2800000000000D+00  0.0000000000000D+00  0.0000000000000D+00
430  4.2900000000000D+00  0.0000000000000D+00  0.0000000000000D+00
431  4.3000000000000D+00  0.0000000000000D+00  0.0000000000000D+00
432  4.3100000000000D+00  0.0000000000000D+00  0.0000000000000D+00
433  4.3200000000000D+00  0.0000000000000D+00  0.0000000000000D+00
434  4.3300000000000D+00  0.0000000000000D+00  0.0000000000000D+00
435  4.3400000000000D+00  0.0000000000000D+00  0.0000000000000D+00
436  4.3500000000000D+00  0.0000000000000D+00  0.0000000000000D+00
437  4.3600000000000D+00  0.0000000000000D+00  0.0000000000000D+00
438  4.3700000000000D+00  0.0000000000000D+00  0.0000000000000D+00
439  4.3800000000000D+00  0.0000000000000D+00  0.0000000000000D+00
440  4.3900000000000D+00  0.0000000000000D+00  0.0000000000000D+00
441  4.4000000000000D+00  0.0000000000000D+00  0.0000000000000D+00
442  4.4100000000000D+00  0.0000000000000D+00  0.0000000000000D+00
443  4.4200000000000D+00  0.0000000000000D+00  0.0000000000000D+00