<?xml version="1.0" encoding="UTF-8" ?>
<psml version="1.1" energy_unit="hartree" length_unit="bohr"
 uuid="77822210-53a0-11e8-585e-82d8b7f61f28"
 xmlns="http://esl.cecam.org/PSML/ns/1.1">
<provenance creator="ONCVPSP-3.3.0+psml-3.3.0-73 (fully-relativistic)"
 date="2018-05-09">
<annotation action="semilocal-pseudopotential-generation"
 action-cont="projectors-generation" />
<input-file name="oncvpsp-input">
<![CDATA[# atsym z nc nv iexc psfile
Cl 17 3 2 -116133 upf
# n l f
1 0 2.0
2 0 2.0
2 1 6.0
3 0 2.0
3 1 5.0
# lmax
2
# l rc ep ncon nbas qcut
0 1.55 0.0 4 9 6.8
1 1.35 0.0 4 8 8.0
2 1.75 0.1 4 9 6.8
# lloc lpopt rc5 dvloc0
4 5 1.3 0.0
# l nproj debl
0 2 2.0
1 2 2.0
2 2 1.5
# icmod fcfact rcfact
3 8.0 1.23
# epsh1 epsh2 depsh
-15.0 12.0 0.02
# rlmax drl
6.0 0.01
 0
]]>
</input-file>
</provenance>
<pseudo-atom-spec atomic-label="Cl" atomic-number="17" z-pseudo="7"
 flavor="Hamann&apos;s oncvpsp" relativity="dirac" spin-dft="no"
 core-corrections="yes">
<annotation pseudo-energy="-14.9492040476" />
<exchange-correlation>
<annotation oncvpsp-xc-code="-116133" oncvpsp-xc-type="libxc-interface" />
<libxc-info number-of-functionals="2">
<functional name="Perdew, Burke &amp; Ernzerhof SOL (GGA)" type="exchange"
 id="116" />
<functional name="Perdew, Burke &amp; Ernzerhof SOL (GGA)" type="correlation"
 id="133" />
</libxc-info>
</exchange-correlation>
<valence-configuration total-valence-charge="7">
<shell n="3" l="s" occupation="2" />
<shell n="3" l="p" occupation="5" />
</valence-configuration>
</pseudo-atom-spec>
<grid npts="457">
<annotation type="sampled from oncvpsp log grid"
 recipe="r(i:1..N) = r1*exp(a*(i-1)) + r=0; resampled"
 recipe-cont="r1: scale; a: step" scale="0.294117647059E-04"
 step="0.119285708653E-01" delta="0.500000000000E-02" rmax="44.0242521724" />
<grid-data>
  0.000000000000E+00  5.027151483922E-03  1.004134057245E-02  1.506361205528E-02
  2.029747125469E-02  2.546077814243E-02  3.081483684808E-02  3.598375947907E-02
  4.102911721421E-02  4.622716901962E-02  5.146617712438E-02  5.661949745917E-02
  6.228882096259E-02  6.771325607946E-02  7.273723248327E-02  7.813396217599E-02
  8.393110154036E-02  8.908928747130E-02  9.456448201537E-02  1.003761676926E-01
  1.065450243678E-01  1.117519790870E-01  1.172134025401E-01  1.229417308514E-01
  1.289500079103E-01  1.352519150732E-01  1.418618023172E-01  1.470303566364E-01
  1.523872206578E-01  1.579392552059E-01  1.636935710706E-01  1.696575381144E-01
  1.758387947112E-01  1.822452575295E-01  1.888851316716E-01  1.957669211822E-01
  2.028994399400E-01  2.102918229461E-01  2.153691087193E-01  2.205689804802E-01
  2.258943979449E-01  2.313483922889E-01  2.369340678723E-01  2.426546040070E-01
  2.485132567662E-01  2.545133608375E-01  2.606583314216E-01  2.669516661754E-01
  2.733969472036E-01  2.799978430969E-01  2.867581110206E-01  2.936815988531E-01
  3.007722473758E-01  3.080340925164E-01  3.154712676462E-01  3.230880059322E-01
  3.308886427474E-01  3.388776181379E-01  3.470594793502E-01  3.554388834197E-01
  3.640205998210E-01  3.728095131830E-01  3.818106260693E-01  3.910290618251E-01
  4.004700674939E-01  4.101390168034E-01  4.200414132251E-01  4.250819101838E-01
  4.301828931060E-01  4.353450878233E-01  4.405692288772E-01  4.458560596237E-01
  4.512063323392E-01  4.566208083273E-01  4.621002580272E-01  4.676454611235E-01
  4.732572066570E-01  4.789362931369E-01  4.846835286545E-01  4.904997309984E-01
  4.963857277704E-01  5.023423565036E-01  5.083704647817E-01  5.144709103590E-01
  5.206445612833E-01  5.268922960187E-01  5.332150035710E-01  5.396135836138E-01
  5.460889466172E-01  5.526420139766E-01  5.592737181443E-01  5.659850027620E-01
  5.727768227952E-01  5.796501446687E-01  5.866059464048E-01  5.936452177616E-01
  6.007689603747E-01  6.079781878992E-01  6.152739261540E-01  6.226572132679E-01
  6.301290998271E-01  6.376906490250E-01  6.453429368133E-01  6.530870520551E-01
  6.609240966797E-01  6.688551858399E-01  6.768814480700E-01  6.850040254468E-01
  6.932240737522E-01  7.015427626372E-01  7.099612757889E-01  7.184808110983E-01
  7.271025808315E-01  7.358278118015E-01  7.446577455431E-01  7.535936384896E-01
  7.626367621515E-01  7.717884032973E-01  7.810498641369E-01  7.904224625065E-01
  7.999075320566E-01  8.095064224413E-01  8.192204995106E-01  8.290511455047E-01
  8.389997592508E-01  8.490677563618E-01  8.592565694381E-01  8.695676482714E-01
  8.800024600506E-01  8.905624895712E-01  9.012492394461E-01  9.120642303194E-01
  9.230090010833E-01  9.340851090963E-01  9.452941304054E-01  9.566376599703E-01
  9.681173118899E-01  9.797347196326E-01  9.914915362682E-01  1.003389434703E+00
  1.015430107920E+00  1.027615269215E+00  1.039946652445E+00  1.052426012275E+00
  1.065055124422E+00  1.077835785915E+00  1.090769815346E+00  1.103859053130E+00
  1.117105361768E+00  1.130510626109E+00  1.144076753622E+00  1.157805674666E+00
  1.171699342762E+00  1.185759734875E+00  1.199988851694E+00  1.214388717914E+00
  1.228961382529E+00  1.243708919119E+00  1.258633426149E+00  1.273737027262E+00
  1.289021871590E+00  1.304490134049E+00  1.320144015657E+00  1.335985743845E+00
  1.352017572771E+00  1.368241783644E+00  1.384660685048E+00  1.401276613269E+00
  1.418091932628E+00  1.435109035820E+00  1.452330344249E+00  1.469758308380E+00
  1.487395408081E+00  1.505244152978E+00  1.523307082814E+00  1.541586767807E+00
  1.560085809021E+00  1.578806838729E+00  1.597752520794E+00  1.616925551044E+00
  1.636328657656E+00  1.655964601548E+00  1.675836176767E+00  1.695946210888E+00
  1.716297565418E+00  1.736893136203E+00  1.757735853838E+00  1.778828684084E+00
  1.800174628293E+00  1.821776723832E+00  1.843638044518E+00  1.865761701053E+00
  1.888150841465E+00  1.910808651563E+00  1.933738355382E+00  1.956943215646E+00
  1.980426534234E+00  2.004191652645E+00  2.028241952477E+00  2.052580855906E+00
  2.077211826177E+00  2.102138368091E+00  2.127364028508E+00  2.152892396850E+00
  2.178727105613E+00  2.204871830880E+00  2.231330292851E+00  2.258106256365E+00
  2.285203531441E+00  2.312625973818E+00  2.340377485504E+00  2.368462015330E+00
  2.396883559514E+00  2.425646162228E+00  2.454753916175E+00  2.484210963169E+00
  2.514021494727E+00  2.544189752664E+00  2.574720029696E+00  2.605616670052E+00
  2.636884070093E+00  2.668526678934E+00  2.700548999081E+00  2.732955587070E+00
  2.765751054115E+00  2.798940066765E+00  2.832527347566E+00  2.866517675736E+00
  2.900915887845E+00  2.935726878499E+00  2.970955601041E+00  3.006607068254E+00
  3.042686353073E+00  3.079198589310E+00  3.116148972382E+00  3.153542760050E+00
  3.191385273171E+00  3.229681896449E+00  3.268438079206E+00  3.307659336157E+00
  3.347351248191E+00  3.387519463169E+00  3.428169696727E+00  3.469307733088E+00
  3.510939425885E+00  3.553070698995E+00  3.595707547383E+00  3.638856037952E+00
  3.682522310407E+00  3.726712578132E+00  3.771433129070E+00  3.816690326619E+00
  3.862490610538E+00  3.908840497864E+00  3.955746583839E+00  4.003215542845E+00
  4.051254129359E+00  4.099869178911E+00  4.149067609058E+00  4.198856420367E+00
  4.249242697411E+00  4.300233609780E+00  4.351836413098E+00  4.404058450055E+00
  4.456907151455E+00  4.510390037273E+00  4.564514717720E+00  4.619288894333E+00
  4.674720361065E+00  4.730817005398E+00  4.787586809462E+00  4.845037851176E+00
  4.903178305390E+00  4.962016445055E+00  5.021560642395E+00  5.081819370104E+00
  5.142801202545E+00  5.204514816976E+00  5.266968994780E+00  5.330172622717E+00
  5.394134694190E+00  5.458864310520E+00  5.524370682246E+00  5.590663130433E+00
  5.657751087998E+00  5.725644101054E+00  5.794351830267E+00  5.863884052230E+00
  5.934250660857E+00  6.005461668787E+00  6.077527208813E+00  6.150457535318E+00
  6.224263025742E+00  6.298954182051E+00  6.374541632236E+00  6.451036131823E+00
  6.528448565404E+00  6.606789948189E+00  6.686071427568E+00  6.766304284698E+00
  6.847499936115E+00  6.929669935348E+00  7.012825974572E+00  7.096979886267E+00
  7.182143644902E+00  7.268329368641E+00  7.355549321065E+00  7.443815912918E+00
  7.533141703873E+00  7.623539404319E+00  7.715021877171E+00  7.807602139697E+00
  7.901293365373E+00  7.996108885758E+00  8.092062192387E+00  8.189166938696E+00
  8.287436941960E+00  8.386886185263E+00  8.487528819487E+00  8.589379165320E+00
  8.692451715304E+00  8.796761135888E+00  8.902322269519E+00  9.009150136753E+00
  9.117259938394E+00  9.226667057655E+00  9.337387062346E+00  9.449435707095E+00
  9.562828935580E+00  9.677582882807E+00  9.793713877400E+00  9.911238443929E+00
  1.003017330526E+01  1.015053538492E+01  1.027234180954E+01  1.039560991125E+01
  1.052035723019E+01  1.064660151695E+01  1.077436073515E+01  1.090365306398E+01
  1.103449690074E+01  1.116691086355E+01  1.130091379391E+01  1.143652475944E+01
  1.157376305655E+01  1.171264821323E+01  1.185319999179E+01  1.199543839169E+01
  1.213938365239E+01  1.228505625622E+01  1.243247693130E+01  1.258166665447E+01
  1.273264665433E+01  1.288543841418E+01  1.304006367515E+01  1.319654443925E+01
  1.335490297252E+01  1.351516180819E+01  1.367734374989E+01  1.384147187489E+01
  1.400756953739E+01  1.417566037184E+01  1.434576829630E+01  1.451791751585E+01
  1.469213252604E+01  1.486843811636E+01  1.504685937375E+01  1.522742168624E+01
  1.541015074647E+01  1.559507255543E+01  1.578221342610E+01  1.597159998721E+01
  1.616325918706E+01  1.635721829730E+01  1.655350491687E+01  1.675214697587E+01
  1.695317273958E+01  1.715661081246E+01  1.736249014220E+01  1.757084002391E+01
  1.778169010420E+01  1.799507038545E+01  1.821101123007E+01  1.842954336484E+01
  1.865069788521E+01  1.887450625984E+01  1.910100033495E+01  1.933021233897E+01
  1.956217488704E+01  1.979692098569E+01  2.003448403751E+01  2.027489784596E+01
  2.051819662012E+01  2.076441497956E+01  2.101358795931E+01  2.126575101482E+01
  2.152094002700E+01  2.177919130732E+01  2.204054160301E+01  2.230502810225E+01
  2.257268843948E+01  2.284356070075E+01  2.311768342916E+01  2.339509563031E+01
  2.367583677787E+01  2.395994681921E+01  2.424746618104E+01  2.453843577521E+01
  2.483289700451E+01  2.513089176857E+01  2.543246246979E+01  2.573765201943E+01
  2.604650384366E+01  2.635906188978E+01  2.667537063246E+01  2.699547508005E+01
  2.731942078101E+01  2.764725383038E+01  2.797902087635E+01  2.831476912686E+01
  2.865454635639E+01  2.899840091266E+01  2.934638172361E+01  2.969853830430E+01
  3.005492076395E+01  3.041557981312E+01  3.078056677087E+01  3.114993357213E+01
  3.152373277499E+01  3.190201756829E+01  3.228484177911E+01  3.267225988046E+01
  3.306432699902E+01  3.346109892301E+01  3.386263211009E+01  3.426898369541E+01
  3.468021149976E+01  3.509637403775E+01  3.551753052621E+01  3.594374089252E+01
  3.637506578323E+01  3.681156657263E+01  3.725330537150E+01  3.770034503596E+01
  3.815274917639E+01  3.861058216651E+01  3.907390915250E+01  3.954279606233E+01
  4.001730961508E+01  4.049751733046E+01  4.098348753843E+01  4.147528938889E+01
  4.197299286156E+01  4.247666877590E+01  4.298638880121E+01  4.350222546682E+01
  4.402425217242E+01
</grid-data>
</grid>
<valence-charge total-charge="7" is-unscreening-charge="yes"
 rescaled-to-z-pseudo="no">
<radfunc>
<data npts="457">
  5.784984481950E-02  5.798362674517E-02  5.838363420361E-02  5.905127940235E-02
  6.003160458859E-02  6.128360407800E-02  6.288111723235E-02  6.471296332385E-02
  6.677593723265E-02  6.918604919359E-02  7.190828405271E-02  7.487392923330E-02
  7.846748219409E-02  8.223156144571E-02  8.600298478187E-02  9.036101243663E-02
  9.539788847531E-02  1.001905789954E-01  1.055997060363E-01  1.117057021294E-01
  1.185997540091E-01  1.247514460099E-01  1.315327131126E-01  1.390091776382E-01
  1.472534869155E-01  1.563460842134E-01  1.663760624309E-01  1.745726786388E-01
  1.833973711197E-01  1.928992758928E-01  2.031314449475E-01  2.141511519296E-01
  2.260202171994E-01  2.388053520447E-01  2.525785213553E-01  2.674173234375E-01
  2.834053848525E-01  3.006327671586E-01  3.128537630670E-01  3.256989814203E-01
  3.392004029167E-01  3.533915510030E-01  3.683075433596E-01  3.839851408555E-01
  4.004627930608E-01  4.177806792589E-01  4.359807437343E-01  4.551067239304E-01
  4.752041698649E-01  4.963204529654E-01  5.185047622343E-01  5.418080853759E-01
  5.662831722145E-01  5.919844773976E-01  6.189680790199E-01  6.472915694075E-01
  6.770139138827E-01  7.081952728790E-01  7.408967822959E-01  7.751802864860E-01
  8.111080177401E-01  8.487422156113E-01  8.881446788788E-01  9.293762424350E-01
  9.724961708853E-01  1.017561460212E+00  1.064626038498E+00  1.088923853246E+00
  1.113739856470E+00  1.139079501762E+00  1.164947858549E+00  1.191349572756E+00
  1.218288825269E+00  1.245769288119E+00  1.273794078340E+00  1.302365709445E+00
  1.331486040494E+00  1.361156222694E+00  1.391376643536E+00  1.422146868433E+00
  1.453465579881E+00  1.485330514145E+00  1.517738395503E+00  1.550684868117E+00
  1.584164425586E+00  1.618170338290E+00  1.652694578650E+00  1.687727744457E+00
  1.723258980446E+00  1.759275898360E+00  1.795764495733E+00  1.832709073716E+00
  1.870092154276E+00  1.907894397152E+00  1.946094517029E+00  1.984669201387E+00
  2.023593029598E+00  2.062838393843E+00  2.102375422536E+00  2.142171906928E+00
  2.182193231704E+00  2.222402310370E+00  2.262759526330E+00  2.303222680591E+00
  2.343746947084E+00  2.384284836628E+00  2.424786170627E+00  2.465198065585E+00
  2.505464929590E+00  2.545528471887E+00  2.585327726692E+00  2.624799092372E+00
  2.663876387076E+00  2.702490921881E+00  2.740571592422E+00  2.778044989906E+00
  2.814835532306E+00  2.850865616382E+00  2.886055791061E+00  2.920324952502E+00
  2.953590560998E+00  2.985768879661E+00  3.016775234598E+00  3.046524296045E+00
  3.074930379684E+00  3.101907767095E+00  3.127371044044E+00  3.151235455057E+00
  3.173417272471E+00  3.193834177928E+00  3.212405654091E+00  3.229053384159E+00
  3.243701656641E+00  3.256277772739E+00  3.266712453665E+00  3.274940245182E+00
  3.280899916755E+00  3.284534852771E+00  3.285793433460E+00  3.284629403344E+00
  3.281002225262E+00  3.274877418294E+00  3.266226878140E+00  3.255029178800E+00
  3.241269854596E+00  3.224941661764E+00  3.206044818964E+00  3.184587226044E+00
  3.160584660336E+00  3.134060949515E+00  3.105048119734E+00  3.073586517242E+00
  3.039724901118E+00  3.003520504012E+00  2.965039057026E+00  2.924354774019E+00
  2.881550289853E+00  2.836716546348E+00  2.789952619205E+00  2.741365478817E+00
  2.691069677955E+00  2.639186959708E+00  2.585845780019E+00  2.531180740594E+00
  2.475331929990E+00  2.418443882828E+00  2.360663240252E+00  2.302135689352E+00
  2.243004755655E+00  2.183411435188E+00  2.123493194028E+00  2.063383243058E+00
  2.003209821458E+00  1.943095550643E+00  1.883156871385E+00  1.823503579701E+00
  1.764238474982E+00  1.705457263731E+00  1.647249134551E+00  1.589697714663E+00
  1.532881224009E+00  1.476872276653E+00  1.421737988668E+00  1.367540004300E+00
  1.314334559671E+00  1.262172564283E+00  1.211099700472E+00  1.161156539379E+00
  1.112378671939E+00  1.064796853397E+00  1.018437159877E+00  9.733211555165E-01
  9.294660687388E-01  8.868849762302E-01  8.455869932639E-01  8.055774690587E-01
  7.668581858047E-01  7.294275603417E-01  6.932808471468E-01  6.584103416458E-01
  6.248055828210E-01  5.924535541745E-01  5.613388821832E-01  5.314440314518E-01
  5.027494958464E-01  4.752339849641E-01  4.488746053646E-01  4.236470360659E-01
  3.995256978562E-01  3.764839160614E-01  3.544940764940E-01  3.335277742862E-01
  3.135559554568E-01  2.945490510724E-01  2.764771039241E-01  2.593098876878E-01
  2.430170185806E-01  2.275680595680E-01  2.129326172133E-01  1.990804312947E-01
  1.859814573468E-01  1.736059423111E-01  1.619244935017E-01  1.509081411177E-01
  1.405283945443E-01  1.307572927068E-01  1.215674487452E-01  1.129320892891E-01
  1.048250886165E-01  9.722099798063E-02  9.009507038957E-02  8.342328111725E-02
  7.718234422167E-02  7.134972533558E-02  6.590365098639E-02  6.082311469117E-02
  5.608788006041E-02  5.167848113266E-02  4.757622014939E-02  4.376316296791E-02
  4.022213229893E-02  3.693669894485E-02  3.389117120599E-02  3.107058261347E-02
  2.846067814108E-02  2.604789904226E-02  2.381936645376E-02  2.176286390354E-02
  1.986681885701E-02  1.812028343270E-02  1.651291441554E-02  1.503495269302E-02
  1.367720223611E-02  1.243100874347E-02  1.128823806305E-02  1.024125450080E-02
  9.282899120532E-03  8.406468133497E-03  7.605691469586E-03  6.874711615156E-03
  6.208062795308E-03  5.600650570783E-03  5.047731911905E-03  4.544895804134E-03
  4.088044431990E-03  3.673374980416E-03  3.297362085157E-03  2.956740956562E-03
  2.648491194416E-03  2.369821304996E-03  2.118153925679E-03  1.891111756988E-03
  1.686504197135E-03  1.502314669783E-03  1.336688632014E-03  1.187922246251E-03
  1.054451697244E-03  9.348431330296E-04  8.277832071356E-04  7.320701980452E-04
  6.466056811309E-04  5.703867278172E-04  5.024986065988E-04  4.421079606913E-04
  3.884564374656E-04  3.408547453848E-04  2.986771148692E-04  2.613561403352E-04
  2.283779815437E-04  1.992779033344E-04  1.736361337788E-04  1.510740217444E-04
  1.312504758100E-04  1.138586673869E-04  9.862298178921E-05  8.529620183825E-05
  7.365690938963E-05  6.350709093261E-05  5.466993412828E-05  4.698780283276E-05
  4.032037879308E-05  3.454295881167E-05  2.954489675272E-05  2.522818031402E-05
  2.150613301376E-05  1.830223234540E-05  1.554903553896E-05  1.318720483345E-05
  1.116462461619E-05  9.435603220908E-06  7.960152597675E-06  6.703339476043E-06
  5.634702037149E-06  4.727726491714E-06  3.959378328639E-06  3.309683353114E-06
  2.761353973523E-06  2.299456522857E-06  1.911115712495E-06  1.585252613906E-06
  1.312352846978E-06  1.084261922137E-06  8.940049371602E-07  7.356280687743E-07
  6.040595237614E-07  4.949878246738E-07  4.047555016585E-07  3.302664446267E-07
  2.689053395174E-07  2.184677691474E-07  1.770997036145E-07  1.432452379813E-07
  1.156015565738E-07  9.308021428082E-08  7.477392633647E-08  5.992814982354E-08
  4.791682315364E-08  3.822170467036E-08  3.041481887083E-08  2.414357912834E-08
  1.911820977963E-08  1.510113855070E-08  1.189807304307E-08  9.350512874423E-09
  7.329482516764E-09  5.730299332104E-09  4.468217167247E-09  3.474808507350E-09
  2.694967944376E-09  2.084436906389E-09  1.607764505147E-09  1.236632255449E-09
  9.484815386873E-10  7.253922406868E-10  5.531691842240E-10  4.205999735988E-10
  3.188538276366E-10  2.409960366887E-10  1.815969609797E-10  1.364181000512E-10
  1.021608010209E-10  7.626572009543E-11  5.675327978322E-11  4.209713662725E-11
  3.112414559829E-11  2.293552467516E-11  1.684492704819E-11  1.232995347405E-11
  8.994313133412E-12  6.538393008522E-12  4.736444558506E-12  3.418960249426E-12
  2.459106347012E-12  1.762314901348E-12  1.258327545108E-12  8.951353100564E-13
  6.343793523852E-13  4.478732079247E-13  3.149828493429E-13  2.206603745530E-13
  1.539738632156E-13  1.070124271044E-13  7.407387449442E-14  5.106441696379E-14
  3.505683724588E-14  2.396660017075E-14  1.631539185889E-14  1.105919881600E-14
  7.463843465580E-15  5.015233929296E-15  3.354954039015E-15  2.234216413508E-15
  1.481096715172E-15  9.773204276280E-16  6.418910820559E-16  4.195960953916E-16
  2.729741698304E-16  1.767279229689E-16  1.138556597890E-16  5.236521457182E-17
  0.000000000000E+00  0.000000000000E+00  0.000000000000E+00  0.000000000000E+00
  0.000000000000E+00  0.000000000000E+00  0.000000000000E+00  0.000000000000E+00
  0.000000000000E+00  0.000000000000E+00  0.000000000000E+00  0.000000000000E+00
  0.000000000000E+00  0.000000000000E+00  0.000000000000E+00  0.000000000000E+00
  0.000000000000E+00  0.000000000000E+00  0.000000000000E+00  0.000000000000E+00
  0.000000000000E+00  0.000000000000E+00  0.000000000000E+00  0.000000000000E+00
  0.000000000000E+00  0.000000000000E+00  0.000000000000E+00  0.000000000000E+00
  0.000000000000E+00  0.000000000000E+00  0.000000000000E+00  0.000000000000E+00
  0.000000000000E+00  0.000000000000E+00  0.000000000000E+00  0.000000000000E+00
  0.000000000000E+00  0.000000000000E+00  0.000000000000E+00  0.000000000000E+00
  0.000000000000E+00  0.000000000000E+00  0.000000000000E+00  0.000000000000E+00
  0.000000000000E+00  0.000000000000E+00  0.000000000000E+00  0.000000000000E+00
  0.000000000000E+00  0.000000000000E+00  0.000000000000E+00  0.000000000000E+00
  0.000000000000E+00  0.000000000000E+00  0.000000000000E+00  0.000000000000E+00
  0.000000000000E+00
</data>
</radfunc>
</valence-charge>
<pseudocore-charge matching-radius="0.819220499511"
 number-of-continuous-derivatives="4">
<annotation model-charge-form="Teter function with specified parameters" />
<radfunc>
<data npts="290">
  2.605259174736E+01  2.605054303199E+01  2.604441890226E+01  2.603420231425E+01
  2.601921247453E+01  2.600008841414E+01  2.597571895132E+01  2.594781917341E+01
  2.591645569374E+01  2.587989004871E+01  2.583868609590E+01  2.579391440693E+01
  2.573982499840E+01  2.568335728769E+01  2.562697109451E+01  2.556205141926E+01
  2.548733232353E+01  2.541654393069E+01  2.533700779213E+01  2.524767429346E+01
  2.514737631604E+01  2.505837754436E+01  2.496080800185E+01  2.485387972382E+01
  2.473674015183E+01  2.460846852373E+01  2.446807245460E+01  2.435417968915E+01
  2.423238960926E+01  2.410219856156E+01  2.396307753010E+01  2.381447194946E+01
  2.365580173009E+01  2.348646153813E+01  2.330582137818E+01  2.311322753305E+01
  2.290800392117E+01  2.268945393903E+01  2.253599812038E+01  2.237608648825E+01
  2.220950088997E+01  2.203602120715E+01  2.185542597846E+01  2.166749310354E+01
  2.147200063414E+01  2.126872765885E+01  2.105745528775E+01  2.083796774351E+01
  2.061005356544E+01  2.037350693261E+01  2.012812911244E+01  1.987373004031E+01
  1.961013003557E+01  1.933716165861E+01  1.905467171281E+01  1.876252339406E+01
  1.846059858948E+01  1.814880032508E+01  1.782705536056E+01  1.749531692706E+01
  1.715356760109E+01  1.680182230522E+01  1.644013142225E+01  1.606858400635E+01
  1.568731106983E+01  1.529648892002E+01  1.489634251507E+01  1.469285714179E+01
  1.448714880198E+01  1.427926077516E+01  1.406923999430E+01  1.385713714140E+01
  1.364300673997E+01  1.342690724410E+01  1.320890112325E+01  1.298905494250E+01
  1.276743943755E+01  1.254412958377E+01  1.231920465879E+01  1.209274829789E+01
  1.186484854148E+01  1.163559787395E+01  1.140509325321E+01  1.117343613000E+01
  1.094073245639E+01  1.070709268245E+01  1.047263174045E+01  1.023746901568E+01
  1.000172830303E+01  9.765537748634E+00  9.529029775532E+00  9.292340992765E+00
  9.055612086919E+00  8.818987695422E+00  8.582616260813E+00  8.346649865268E+00
  8.111244044691E+00  7.876557581766E+00  7.642752277389E+00  7.409992699991E+00
  7.178445912345E+00  6.948281175525E+00  6.719669629811E+00  6.492783952426E+00
  6.267797992130E+00  6.044886380830E+00  5.824224122510E+00  5.605986159955E+00
  5.390346919913E+00  5.177479837503E+00  4.967556860926E+00  4.760747937669E+00
  4.557220483680E+00  4.357138837160E+00  4.160663698885E+00  3.967951561202E+00
  3.779154128067E+00  3.594417728773E+00  3.413882728226E+00  3.237682936894E+00
  3.065945023791E+00  2.898787936062E+00  2.736322329002E+00  2.578650010492E+00
  2.425863404066E+00  2.278045034950E+00  2.135267043577E+00  1.997590731168E+00
  1.865066142043E+00  1.737731687348E+00  1.615613814886E+00  1.498726729638E+00
  1.387072169479E+00  1.280639240379E+00  1.179404315169E+00  1.083330999634E+00
  9.923701693153E-01  9.064600799926E-01  8.255265542782E-01  7.494832461958E-01
  6.782319849651E-01  6.116631985004E-01  5.496564163596E-01  4.920808510521E-01
  4.387960557292E-01  3.896526553684E-01  3.444931476046E-01  3.031527683986E-01
  2.654604167522E-01  2.312396317212E-01  2.003096140335E-01  1.724862837307E-01
  1.475833644195E-01  1.254134839723E-01  1.057892808741E-01  8.852450489279E-02
  7.343510037157E-02  6.034026022954E-02  4.906343871807E-02  3.943331113895E-02
  3.128466909254E-02  2.445924040121E-02  1.880642364841E-02  1.418392828706E-02
  1.045831249681E-02  7.505412396753E-03  5.210657831098E-03  3.469271716739E-03
  2.186351843711E-03  1.276836016427E-03  6.653534741412E-04  2.859675868274E-04
  8.181683741034E-05  4.663019883545E-06  1.435735079284E-05  7.823675466866E-05
  1.704638901531E-04  2.713254848759E-04  3.665042018897E-04  4.463395353162E-04
  5.050931047269E-04  5.402331757809E-04  5.517522814798E-04  5.415304715143E-04
  5.127550093140E-04  4.694053155121E-04  4.158096850655E-04  3.562778586059E-04
  2.948109928193E-04  2.348880434474E-04  1.793251454416E-04  1.302023450236E-04
  8.885009992942E-05  5.588639892994E-05  3.129422700448E-05  1.452846626670E-05
  4.641199924277E-06  4.147766261610E-07  4.928679416651E-07  3.501058036088E-06
  8.150162525788E-06  1.331738237401E-05  1.810244192548E-05  2.185791203436E-05
  2.419485281184E-05  2.496660635696E-05  2.423492461255E-05  2.222355203361E-05
  1.926484872060E-05  1.574502415222E-05  1.205307918850E-05  8.537685517646E-06
  5.475060192103E-06  3.049536030283E-06  1.347118760194E-06  3.609937916805E-07
  6.824160220582E-09  1.448685666417E-07  6.055132751123E-07  1.214781672722E-06
  1.816743811167E-06  2.290435419844E-06  2.559815212815E-06  2.596318740017E-06
  2.414573573864E-06  2.062697008097E-06  1.609198641724E-06  1.128787587166E-06
  6.893149996002E-07  3.416941442090E-07  1.140052068360E-07  1.021873317795E-08
  0.000000000000E+00  0.000000000000E+00  0.000000000000E+00  0.000000000000E+00
  0.000000000000E+00  0.000000000000E+00  0.000000000000E+00  0.000000000000E+00
  0.000000000000E+00  0.000000000000E+00  0.000000000000E+00  0.000000000000E+00
  0.000000000000E+00  0.000000000000E+00  0.000000000000E+00  0.000000000000E+00
  0.000000000000E+00  0.000000000000E+00  0.000000000000E+00  0.000000000000E+00
  0.000000000000E+00  0.000000000000E+00  0.000000000000E+00  0.000000000000E+00
  0.000000000000E+00  0.000000000000E+00  0.000000000000E+00  0.000000000000E+00
  0.000000000000E+00  0.000000000000E+00  0.000000000000E+00  0.000000000000E+00
  0.000000000000E+00  0.000000000000E+00  0.000000000000E+00  0.000000000000E+00
  0.000000000000E+00  0.000000000000E+00  0.000000000000E+00  0.000000000000E+00
  0.000000000000E+00  0.000000000000E+00  0.000000000000E+00  0.000000000000E+00
  0.000000000000E+00  0.000000000000E+00  0.000000000000E+00  0.000000000000E+00
  0.000000000000E+00  0.000000000000E+00  0.000000000000E+00  0.000000000000E+00
  0.000000000000E+00  0.000000000000E+00  0.000000000000E+00  0.000000000000E+00
  0.000000000000E+00  0.000000000000E+00
</data>
</radfunc>
</pseudocore-charge>
<semilocal-potentials set="lj">
<slps n="3" l="s" j="0.5" rc="1.56008580902" eref="-0.757661498621">
<radfunc>
<data npts="290">
  2.849982994968E+01  2.848740391081E+01  2.845030012200E+01  2.838853751573E+01
  2.829822521239E+01  2.818353018453E+01  2.803822353034E+01  2.787302163192E+01
  2.768876604305E+01  2.747586975483E+01  2.723841139607E+01  2.698328124126E+01
  2.667899598600E+01  2.636584252000E+01  2.605764269637E+01  2.570824721410E+01
  2.531315349988E+01  2.494561655238E+01  2.454030688856E+01  2.409443987185E+01
  2.360528309275E+01  2.318102913866E+01  2.272615002555E+01  2.223951507547E+01
  2.172014230723E+01  2.116723467264E+01  2.058021802883E+01  2.011737261064E+01
  1.963513617107E+01  1.913358969544E+01  1.861292619204E+01  1.807345818423E+01
  1.751562419570E+01  1.693999398032E+01  1.634727225056E+01  1.573830066991E+01
  1.511405789662E+01  1.447565749763E+01  1.404280107880E+01  1.360460232520E+01
  1.316148415315E+01  1.271389148741E+01  1.226228970439E+01  1.180716287957E+01
  1.134901184922E+01  1.088835210026E+01  1.042571150420E+01  9.961627914526E+00
  9.496646649278E+00  9.031317882992E+00  8.566193974483E+00  8.101826758826E+00
  7.638764833487E+00  7.177550869813E+00  6.718718982017E+00  6.262792186302E+00
  5.810279982921E+00  5.361676093765E+00  4.917456387425E+00  4.478077022738E+00
  4.043972840421E+00  3.615556030704E+00  3.193215102696E+00  2.777314178729E+00
  2.368192633906E+00  1.966165097646E+00  1.571521830024E+00  1.377053518676E+00
  1.184529481084E+00  9.939795473376E-01  8.054322360522E-01  6.189148109687E-01
  4.344533432786E-01  2.520727795163E-01  7.179701483092E-02 -1.063510285913E-01
 -2.823493182227E-01 -4.561766233057E-01 -6.278124227421E-01 -7.972368091565E-01
 -9.644303895461E-01 -1.129374183085E+00 -1.292049516547E+00 -1.452437917941E+00
 -1.610521009139E+00 -1.766280398043E+00 -1.919697571120E+00 -2.070753787161E+00
 -2.219429973071E+00 -2.365706622663E+00 -2.509563699410E+00 -2.650980544195E+00
 -2.789935789132E+00 -2.926407278574E+00 -3.060371998447E+00 -3.191806015112E+00
 -3.320684424932E+00 -3.446981315778E+00 -3.570669741669E+00 -3.691721711763E+00
 -3.810108194894E+00 -3.925799140790E+00 -4.038763519095E+00 -4.148969377254E+00
 -4.256383918237E+00 -4.360973599008E+00 -4.462704250575E+00 -4.561541220325E+00
 -4.657449537278E+00 -4.750394100745E+00 -4.840339892815E+00 -4.927252214910E+00
 -5.011096948541E+00 -5.091840840249E+00 -5.169451810509E+00 -5.243899286115E+00
 -5.315154555297E+00 -5.383191144312E+00 -5.447985213750E+00 -5.509515971906E+00
 -5.567766101626E+00 -5.622722195605E+00 -5.674375193487E+00 -5.722720812035E+00
 -5.767759957301E+00 -5.809499105067E+00 -5.847950633088E+00 -5.883133086001E+00
 -5.915071351507E+00 -5.943796724908E+00 -5.969346838734E+00 -5.991765435443E+00
 -6.011101964276E+00 -6.027410988677E+00 -6.040751398054E+00 -6.051185427002E+00
 -6.058777495729E+00 -6.063592896717E+00 -6.065696363532E+00 -6.065150567268E+00
 -6.062014593574E+00 -6.056342457880E+00 -6.048181718278E+00 -6.037572244578E+00
 -6.024545199072E+00 -6.009122280164E+00 -5.991315275056E+00 -5.971125962868E+00
 -5.948546405065E+00 -5.923559655980E+00 -5.896140922032E+00 -5.866259193287E+00
 -5.833879364463E+00 -5.798964853476E+00 -5.761480713486E+00 -5.721397218702E+00
 -5.678693884681E+00 -5.633363860876E+00 -5.585418606879E+00 -5.534892735207E+00