Hg    ONCVPSP-3.3.0  r_core=   2.61057   2.45942   2.10614
80.0000     12.0000      180430    zatom,zion,pspd
8 -116133   2     4   600     0    pspcod,pspxc,lmax,lloc,mmax,r2well
5.99000000  6.00000000  0.00000000    rchrg fchrg qchrg
2     4     3     0    nproj
3     1           extension_switch
4     3     0    nprojso
0                         8.4672810744884D-01  5.3650795901224D+00
1  0.0000000000000D+00 -1.4827167271747D-12  5.4438398233714D-13
2  1.0000000000000D-02  1.4054689656138D-02  7.6620390900782D-03
3  2.0000000000000D-02  2.8064309023329D-02  1.5344673647703D-02
4  3.0000000000000D-02  4.1983910514671D-02  2.3068440650316D-02
5  4.0000000000000D-02  5.5768791679023D-02  3.0853760212086D-02
6  5.0000000000000D-02  6.9374617098459D-02  3.8720877444473D-02
7  6.0000000000000D-02  8.2757539482241D-02  4.6689804667058D-02
8  7.0000000000000D-02  9.5874319691231D-02  5.4780264084763D-02
9  8.0000000000000D-02  1.0868244542814D-01  6.3011631047017D-02
10  9.0000000000000D-02  1.2114024833092D-01  7.1402878003788D-02
11  1.0000000000000D-01  1.3320701920875D-01  7.9972519272515D-02
12  1.1000000000000D-01  1.4484312116294D-01  8.8738556729055D-02
13  1.2000000000000D-01  1.5601010033776D-01  9.7718426534613D-02
14  1.3000000000000D-01  1.6667079405004D-01  1.0692894700937D-01
15  1.4000000000000D-01  1.7678943604970D-01  1.1638626776210D-01
16  1.5000000000000D-01  1.8633175866827D-01  1.2610582018354D-01
17  1.6000000000000D-01  1.9526509161632D-01  1.3610226940943D-01
18  1.7000000000000D-01  2.0355845719649D-01  1.4638946785745D-01
19  1.8000000000000D-01  2.1118266170378D-01  1.5698041043992D-01
20  1.9000000000000D-01  2.1811038279095D-01  1.6788719155232D-01
21  2.0000000000000D-01  2.2431625258310D-01  1.7912096393484D-01
22  2.1000000000000D-01  2.2977693633230D-01  1.9069189950192D-01
23  2.2000000000000D-01  2.3447120641035D-01  2.0260915223185D-01
24  2.3000000000000D-01  2.3838001144551D-01  2.1488082320558D-01
25  2.4000000000000D-01  2.4148654041691D-01  2.2751392788072D-01
26  2.5000000000000D-01  2.4377628152923D-01  2.4051436568359D-01
27  2.6000000000000D-01  2.4523707569907D-01  2.5388689199830D-01
28  2.7000000000000D-01  2.4585916449386D-01  2.6763509262863D-01
29  2.8000000000000D-01  2.4563523237426D-01  2.8176136080414D-01
30  2.9000000000000D-01  2.4456044310127D-01  2.9626687679812D-01
31  3.0000000000000D-01  2.4263247018000D-01  3.1115159022062D-01
32  3.1000000000000D-01  2.3985152122365D-01  3.2641420504537D-01
33  3.2000000000000D-01  2.3622035613243D-01  3.4205216742461D-01
34  3.3000000000000D-01  2.3174429899489D-01  3.5806165634111D-01
35  3.4000000000000D-01  2.2643124363105D-01  3.7443757714157D-01
36  3.5000000000000D-01  2.2029165271033D-01  3.9117355799025D-01
37  3.6000000000000D-01  2.1333855038994D-01  4.0826194927641D-01
38  3.7000000000000D-01  2.0558750843373D-01  4.2569382600340D-01
39  3.8000000000000D-01  1.9705662578514D-01  4.4345899318146D-01
40  3.9000000000000D-01  1.8776650158257D-01  4.6154599424046D-01
41  4.0000000000000D-01  1.7774020162004D-01  4.7994212247257D-01
42  4.1000000000000D-01  1.6700321827118D-01  4.9863343550865D-01
43  4.2000000000000D-01  1.5558342390980D-01  5.1760477282572D-01
44  4.3000000000000D-01  1.4351101787576D-01  5.3683977627637D-01
45  4.4000000000000D-01  1.3081846705081D-01  5.5632091362427D-01
46  4.5000000000000D-01  1.1754044012465D-01  5.7602950506328D-01
47  4.6000000000000D-01  1.0371373564780D-01  5.9594575269061D-01
48  4.7000000000000D-01  8.9377203983753D-02  6.1604877289781D-01
49  4.8000000000000D-01  7.4571663289323D-02  6.3631663163609D-01
50  4.9000000000000D-01  5.9339809668143D-02  6.5672638250568D-01
51  5.0000000000000D-01  4.3726121658538D-02  6.7725410761171D-01
52  5.1000000000000D-01  2.7776759233099D-02  6.9787496112191D-01
53  5.2000000000000D-01  1.1539457503354D-02  7.1856321545473D-01
54  5.3000000000000D-01 -4.9365846612298D-03  7.3929231001879D-01
55  5.4000000000000D-01 -2.1600820875128D-02  7.6003490241831D-01
56  5.5000000000000D-01 -3.8401478099101D-02  7.8076292203138D-01
57  5.6000000000000D-01 -5.5285681867821D-02  8.0144762586188D-01
58  5.7000000000000D-01 -7.2199585612535D-02  8.2205965655843D-01
59  5.8000000000000D-01 -8.9088503794516D-02  8.4256910248752D-01
60  5.9000000000000D-01 -1.0589704855095D-01  8.6294555974128D-01
61  6.0000000000000D-01 -1.2256926954174D-01  8.8315819595416D-01
62  6.1000000000000D-01 -1.3904879667288D-01  9.0317581579658D-01
63  6.2000000000000D-01 -1.5527898535986D-01  9.2296692800779D-01
64  6.3000000000000D-01 -1.7120306398326D-01  9.4249981382439D-01
65  6.4000000000000D-01 -1.8676428317768D-01  9.6174259665582D-01
66  6.5000000000000D-01 -2.0190606658545D-01  9.8066331285265D-01
67  6.6000000000000D-01 -2.1657216269729D-01  9.9922998340911D-01
68  6.7000000000000D-01 -2.3070679739365D-01  1.0174106864365D+00
69  6.8000000000000D-01 -2.4425482679357D-01  1.0351736302400D+00
70  6.9000000000000D-01 -2.5716189001088D-01  1.0524872268283D+00
71  7.0000000000000D-01 -2.6937456141269D-01  1.0693201656810D+00
72  7.1000000000000D-01 -2.8084050197044D-01  1.0856414875962D+00
73  7.2000000000000D-01 -2.9150860929071D-01  1.1014206584394D+00
74  7.3000000000000D-01 -3.0132916591064D-01  1.1166276426105D+00
75  7.4000000000000D-01 -3.1025398544197D-01  1.1312329760459D+00
76  7.5000000000000D-01 -3.1823655614779D-01  1.1452078385710D+00
77  7.6000000000000D-01 -3.2523218153741D-01  1.1585241254167D+00
78  7.7000000000000D-01 -3.3119811756742D-01  1.1711545177159D+00
79  7.8000000000000D-01 -3.3609370604084D-01  1.1830725517935D+00
80  7.9000000000000D-01 -3.3988050380118D-01  1.1942526870654D+00
81  8.0000000000000D-01 -3.4252240732482D-01  1.2046703723653D+00
82  8.1000000000000D-01 -3.4398577232239D-01  1.2143021105155D+00
83  8.2000000000000D-01 -3.4423952796908D-01  1.2231255209658D+00
84  8.3000000000000D-01 -3.4325528539360D-01  1.2311194003231D+00
85  8.4000000000000D-01 -3.4100744006706D-01  1.2382637806012D+00
86  8.5000000000000D-01 -3.3747326774581D-01  1.2445399850213D+00
87  8.6000000000000D-01 -3.3263301363577D-01  1.2499306812010D+00
88  8.7000000000000D-01 -3.2646997446128D-01  1.2544199315740D+00
89  8.8000000000000D-01 -3.1897057313746D-01  1.2579932408871D+00
90  8.9000000000000D-01 -3.1012442576257D-01  1.2606376006284D+00
91  9.0000000000000D-01 -2.9992440066542D-01  1.2623415302485D+00
92  9.1000000000000D-01 -2.8836666926239D-01  1.2630951150406D+00
93  9.2000000000000D-01 -2.7545074849924D-01  1.2628900405562D+00
94  9.3000000000000D-01 -2.6117953467466D-01  1.2617196234389D+00
95  9.4000000000000D-01 -2.4555932846464D-01  1.2595788385697D+00
96  9.5000000000000D-01 -2.2859985099072D-01  1.2564643424230D+00
97  9.6000000000000D-01 -2.1031425079877D-01  1.2523744925460D+00
98  9.7000000000000D-01 -1.9071910164027D-01  1.2473093630794D+00
99  9.8000000000000D-01 -1.6983439097354D-01  1.2412707562521D+00
100  9.9000000000000D-01 -1.4768349912894D-01  1.2342622097888D+00
101  1.0000000000000D+00 -1.2429316910766D-01  1.2262890001827D+00
102  1.0100000000000D+00 -9.9693467012463D-02  1.2173581417970D+00
103  1.0200000000000D+00 -7.3917733135117D-02  1.2074783817666D+00
104  1.0300000000000D+00 -4.7002523753442D-02  1.1966601906875D+00
105  1.0400000000000D+00 -1.8987543718748D-02  1.1849157490893D+00
106  1.0500000000000D+00  1.0084430056543D-02  1.1722589297002D+00
107  1.0600000000000D+00  4.0167634075627D-02  1.1587052755241D+00
108  1.0700000000000D+00  7.1213412532088D-02  1.1442719737623D+00
109  1.0800000000000D+00  1.0317032019022D-01  1.1289778256248D+00
110  1.0900000000000D+00  1.3598423365090D-01  1.1128432120848D+00
111  1.1000000000000D+00  1.6959847075384D-01  1.0958900556483D+00
112  1.1100000000000D+00  2.0395391784505D-01  1.0781417782133D+00
113  1.1200000000000D+00  2.3898916460644D-01  1.0596232551141D+00
114  1.1300000000000D+00  2.7464064612298D-01  1.0403607654502D+00
115  1.1400000000000D+00  3.1084279183532D-01  1.0203819388165D+00
116  1.1500000000000D+00  3.4752818100625D-01  9.9971569855625D-01
117  1.1600000000000D+00  3.8462770430135D-01  9.7839220167407D-01
118  1.1700000000000D+00  4.2207073106543D-01  9.5644277555477D-01
119  1.1800000000000D+00  4.5978528185207D-01  9.3389985164368D-01
120  1.1900000000000D+00  4.9769820575209D-01  9.1079689625203D-01
121  1.2000000000000D+00  5.3573536203735D-01  8.8716833866381D-01
122  1.2100000000000D+00  5.7382180562586D-01  8.6304949672691D-01
123  1.2200000000000D+00  6.1188197585906D-01  8.3847650011869D-01
124  1.2300000000000D+00  6.4983988806558D-01  8.1348621148534D-01
125  1.2400000000000D+00  6.8761932737210D-01  7.8811614566176D-01
126  1.2500000000000D+00  7.2514404421415D-01  7.6240438718393D-01
127  1.2600000000000D+00  7.6233795098983D-01  7.3638950631109D-01
128  1.2700000000000D+00  7.9912531928801D-01  7.1011047378323D-01
129  1.2800000000000D+00  8.3543097712142D-01  6.8360657454118D-01
130  1.2900000000000D+00  8.7118050558887D-01  6.5691732064048D-01
131  1.3000000000000D+00  9.0630043438680D-01  6.3008236359627D-01
132  1.3100000000000D+00  9.4071843559450D-01  6.0314140639554D-01
133  1.3200000000000D+00  9.7436351515192D-01  5.7613411541680D-01
134  1.3300000000000D+00  1.0071662014596D+00  5.4910003249815D-01
135  1.3400000000000D+00  1.0390587305315D+00  5.2207848739390D-01
136  1.3500000000000D+00  1.0699752271327D+00  4.9510851086177D-01
137  1.3600000000000D+00  1.0998518813611D+00  4.6822874861764D-01
138  1.3700000000000D+00  1.1286271201177D+00  4.4147737639755D-01
139  1.3800000000000D+00  1.1562417729391D+00  4.1489201636153D-01
140  1.3900000000000D+00  1.1826392316899D+00  3.8850965506631D-01
141  1.4000000000000D+00  1.2077656035853D+00  3.6236656324259D-01
142  1.4100000000000D+00  1.2315698570975D+00  3.3649821758904D-01
143  1.4200000000000D+00  1.2540039602571D+00  3.1093922480653D-01
144  1.4300000000000D+00  1.2750230109102D+00  2.8572324808380D-01
145  1.4400000000000D+00  1.2945853585428D+00  2.6088293622617D-01
146  1.4500000000000D+00  1.3126527172160D+00  2.3644985564481D-01
147  1.4600000000000D+00  1.3291902693182D+00  2.1245442536773D-01
148  1.4700000000000D+00  1.3441667597242D+00  1.8892585527398D-01
149  1.4800000000000D+00  1.3575545800846D+00  1.6589208770795D-01
150  1.4900000000000D+00  1.3693298429662D+00  1.4337974262918D-01
151  1.5000000000000D+00  1.3794724455273D+00  1.2141406646941D-01
152  1.5100000000000D+00  1.3879661226211D+00  1.0001888479130D-01
153  1.5200000000000D+00  1.3947984889735D+00  7.9216558934070D-02
154  1.5300000000000D+00  1.3999610704538D+00  5.9027946695776D-02
155  1.5400000000000D+00  1.4034493241508D+00  3.9472367212891D-02
156  1.5500000000000D+00  1.4052626472862D+00  2.0567570082337D-02
157  1.5600000000000D+00  1.4054043748350D+00  2.3297088286280D-03
158  1.5700000000000D+00  1.4038817658471D+00 -1.5226681225318D-02
159  1.5800000000000D+00  1.4007059785251D+00 -3.2088700650509D-02
160  1.5900000000000D+00  1.3958920340040D+00 -4.8245099090462D-02
161  1.6000000000000D+00  1.3894587690755D+00 -6.3686283965742D-02
162  1.6100000000000D+00  1.3814287777584D+00 -7.8404324609056D-02
163  1.6200000000000D+00  1.3718283421354D+00 -9.2392951942507D-02
164  1.6300000000000D+00  1.3606873523250D+00 -1.0564755358609D-01
165  1.6400000000000D+00  1.3480392161696D+00 -1.1816516457601D-01
166  1.6500000000000D+00  1.3339207584972D+00 -1.2994445357539D-01
167  1.6600000000000D+00  1.3183721106517D+00 -1.4098570480462D-01
168  1.6700000000000D+00  1.3014365902001D+00 -1.5129079559190D-01
169  1.6800000000000D+00  1.2831605715606D+00 -1.6086316979627D-01
170  1.6900000000000D+00  1.2635933475383D+00 -1.6970780703224D-01
171  1.7000000000000D+00  1.2427869825548D+00 -1.7783118797124D-01
172  1.7100000000000D+00  1.2207961576231D+00 -1.8524125567217D-01
173  1.7200000000000D+00  1.1976780079005D+00 -1.9194737324292D-01
174  1.7300000000000D+00  1.1734919529215D+00 -1.9796027780152D-01
175  1.7400000000000D+00  1.1482995203903D+00 -2.0329203106780D-01
176  1.7500000000000D+00  1.1221641636803D+00 -2.0795596656671D-01
177  1.7600000000000D+00  1.0951510739468D+00 -2.1196663379845D-01
178  1.7700000000000D+00  1.0673269870680D+00 -2.1533973937701D-01
179  1.7800000000000D+00  1.0387599862943D+00 -2.1809208549414D-01
180  1.7900000000000D+00  1.0095193009381D+00 -2.2024150575609D-01
181  1.8000000000000D+00  9.7967510189889D-01 -2.2180679872185D-01
182  1.8100000000000D+00  9.4929829449499D-01 -2.2280765925311D-01
183  1.8200000000000D+00  9.1846030929800D-01 -2.2326460796301D-01
184  1.8300000000000D+00  8.8723289155952D-01 -2.2319891893757D-01
185  1.8400000000000D+00  8.5568788984878D-01 -2.2263254597469D-01
186  1.8500000000000D+00  8.2389704455190D-01 -2.2158804756636D-01
187  1.8600000000000D+00  7.9193177683673D-01 -2.2008851084040D-01
188  1.8700000000000D+00  7.5986297869257D-01 -2.1815747471109D-01
189  1.8800000000000D+00  7.2776080474350D-01 -2.1581885245740D-01
190  1.8900000000000D+00  6.9569446626087D-01 -2.1309685395690D-01
191  1.9000000000000D+00  6.6373202827928D-01 -2.1001590783714D-01
192  1.9100000000000D+00  6.3194021000523D-01 -2.0660058371572D-01
193  1.9200000000000D+00  6.0038418954302D-01 -2.0287551483805D-01
194  1.9300000000000D+00  5.6912741308350D-01 -1.9886532125134D-01
195  1.9400000000000D+00  5.3823140940553D-01 -1.9459453380686D-01
196  1.9500000000000D+00  5.0775561011589D-01 -1.9008751918081D-01
197  1.9600000000000D+00  4.7775717595819D-01 -1.8536840608406D-01
198  1.9700000000000D+00  4.4829083019534D-01 -1.8046101300303D-01
199  1.9800000000000D+00  4.1940869867131D-01 -1.7538877743891D-01
200  1.9900000000000D+00  3.9116015807676D-01 -1.7017468714456D-01
201  2.0000000000000D+00  3.6359169176730D-01 -1.6484121323942D-01
202  2.0100000000000D+00  3.3674675428482D-01 -1.5941024560673D-01
203  2.0200000000000D+00  3.1066564469578D-01 -1.5390303066976D-01
204  2.0300000000000D+00  2.8538538868100D-01 -1.4834011158857D-01
205  2.0400000000000D+00  2.6093962767855D-01 -1.4274127069029D-01
206  2.0500000000000D+00  2.3735853202444D-01 -1.3712547776593D-01
207  2.0600000000000D+00  2.1466868722907D-01 -1.3151083323253D-01
208  2.0700000000000D+00  1.9289304271700D-01 -1.2591452629141D-01
209  2.0800000000000D+00  1.7205087267126D-01 -1.2035279659975D-01
210  2.0900000000000D+00  1.5215768103343D-01 -1.1484088240625D-01
211  2.1000000000000D+00  1.3322492098494D-01 -1.0939293443339D-01
212  2.1100000000000D+00  1.1526036069978D-01 -1.0402206707795D-01
213  2.1200000000000D+00  9.8268265980250D-02 -9.8740371198676D-02
214  2.1300000000000D+00  8.2249629678290D-02 -9.3558941954754D-02
215  2.1400000000000D+00  6.7202358081730D-02 -8.8487910455887D-02
216  2.1500000000000D+00  5.3121781694081D-02 -8.3536542514259D-02
217  2.1600000000000D+00  4.0000541077508D-02 -7.8713205522785D-02
218  2.1700000000000D+00  2.7828631978055D-02 -7.4025373137026D-02
219  2.1800000000000D+00  1.6593413839687D-02 -6.9479624274756D-02
220  2.1900000000000D+00  6.2797878201738D-03 -6.5081675306526D-02
221  2.2000000000000D+00 -3.1297550040384D-03 -6.0836388516528D-02
222  2.2100000000000D+00 -1.1655030543214D-02 -5.6747792672305D-02
223  2.2200000000000D+00 -1.9318055383956D-02 -5.2819105364685D-02
224  2.2300000000000D+00 -2.6142938936165D-02 -4.9052756668505D-02
225  2.2400000000000D+00 -3.2155767483036D-02 -4.5450415633021D-02
226  2.2500000000000D+00 -3.7384483366123D-02 -4.2013018659674D-02
227  2.2600000000000D+00 -4.1858758986191D-02 -3.8740799915328D-02
228  2.2700000000000D+00 -4.5609865949752D-02 -3.5633323684094D-02
229  2.2800000000000D+00 -4.8670540546975D-02 -3.2689518225443D-02
230  2.2900000000000D+00 -5.1074845190132D-02 -2.9907711319168D-02
231  2.3000000000000D+00 -5.2858026751065D-02 -2.7285667158813D-02
232  2.3100000000000D+00 -5.4056372416186D-02 -2.4820624374577D-02
233  2.3200000000000D+00 -5.4707063025747D-02 -2.2509335253560D-02
234  2.3300000000000D+00 -5.4848024896710D-02 -2.0348105770297D-02
235  2.3400000000000D+00 -5.4517780422675D-02 -1.8332836353535D-02
236  2.3500000000000D+00 -5.3755297957903D-02 -1.6459063240681D-02
237  2.3600000000000D+00 -5.2599841470372D-02 -1.4722000219411D-02
238  2.3700000000000D+00 -5.1090820562205D-02 -1.3116580586777D-02
239  2.3800000000000D+00 -4.9267641403845D-02 -1.1637499141763D-02
240  2.3900000000000D+00 -4.7169558676762D-02 -1.0279254155426D-02
241  2.4000000000000D+00 -4.4835529655511D-02 -9.0361889707133D-03
242  2.4100000000000D+00 -4.2304070615589D-02 -7.9025331542220D-03
243  2.4200000000000D+00 -3.9613115435310D-02 -6.8724432319541D-03
244  2.4300000000000D+00 -3.6799878215565D-02 -5.9400424239634D-03
245  2.4400000000000D+00 -3.3900719392675D-02 -5.0994595326340D-03
246  2.4500000000000D+00 -3.0951015157170D-02 -4.3448670440109D-03
247  2.4600000000000D+00 -2.7985032801120D-02 -3.6705175806602D-03
248  2.4700000000000D+00 -2.5035810392900D-02 -3.0707792230609D-03
249  2.4800000000000D+00 -2.2135040989379D-02 -2.5401696318701D-03
250  2.4900000000000D+00 -1.9312964318907D-02 -2.0733879928727D-03
251  2.5000000000000D+00 -1.6598263596275D-02 -1.6653455585494D-03
252  2.5100000000000D+00 -1.4017967953196D-02 -1.3111946265472D-03
253  2.5200000000000D+00 -1.1597773089850D-02 -1.0063536971795D-03
254  2.5300000000000D+00 -9.3630979590572D-03 -7.4652883573458D-04
255  2.5400000000000D+00 -7.3302959482095D-03 -5.2776214066669D-04
256  2.5500000000000D+00 -5.5167153911120D-03 -3.4648905752354D-04
257  2.5600000000000D+00 -3.9320694594756D-03 -1.9988507789274D-04
258  2.5700000000000D+00 -2.6209825518025D-03 -8.3889291889849D-05
259  2.5800000000000D+00 -1.6066547064019D-03  4.3656553607866D-06
260  2.5900000000000D+00 -9.1254920420409D-04  6.9610101965653D-05
261  2.6000000000000D+00 -4.7195322411997D-04  1.0648856421959D-04
262  2.6100000000000D+00 -2.2305344816782D-04  1.1403816771649D-04
263  2.6200000000000D+00 -8.4162705649410D-05  8.7352578683791D-05
264  2.6300000000000D+00 -2.1700819021775D-05  4.6178064899589D-05
265  2.6400000000000D+00 -1.2941337020252D-06  6.2880454745516D-06
266  2.6500000000000D+00  1.0523639803133D-06 -1.1693065637560D-05
267  2.6600000000000D+00 -6.4925485642845D-07 -1.2489839062282D-05
268  2.6700000000000D+00 -6.0394107898457D-07 -3.8706125112423D-06
269  2.6800000000000D+00 -8.1407087106013D-07  2.0345261263563D-06
270  2.6900000000000D+00 -1.0201458431143D-06  2.9967245441528D-06
271  2.7000000000000D+00 -4.2437441551605D-07  1.4601985407974D-06
272  2.7100000000000D+00  2.7883016190936D-07 -1.4860081142550D-07
273  2.7200000000000D+00  6.0103983574361D-07 -3.2032046561586D-07
274  2.7300000000000D+00  4.0780246035596D-07 -2.1733580074423D-07
275  2.7400000000000D+00  0.0000000000000D+00  0.0000000000000D+00
276  2.7500000000000D+00  0.0000000000000D+00  0.0000000000000D+00
277  2.7600000000000D+00  0.0000000000000D+00  0.0000000000000D+00
278  2.7700000000000D+00  0.0000000000000D+00  0.0000000000000D+00
279  2.7800000000000D+00  0.0000000000000D+00  0.0000000000000D+00
280  2.7900000000000D+00  0.0000000000000D+00  0.0000000000000D+00
281  2.8000000000000D+00  0.0000000000000D+00  0.0000000000000D+00
282  2.8100000000000D+00  0.0000000000000D+00  0.0000000000000D+00
283  2.8200000000000D+00  0.0000000000000D+00  0.0000000000000D+00
284  2.8300000000000D+00  0.0000000000000D+00  0.0000000000000D+00
285  2.8400000000000D+00  0.0000000000000D+00  0.0000000000000D+00
286  2.8500000000000D+00  0.0000000000000D+00  0.0000000000000D+00
287  2.8600000000000D+00  0.0000000000000D+00  0.0000000000000D+00
288  2.8700000000000D+00  0.0000000000000D+00  0.0000000000000D+00
289  2.8800000000000D+00  0.0000000000000D+00  0.0000000000000D+00
290  2.8900000000000D+00  0.0000000000000D+00  0.0000000000000D+00
291  2.9000000000000D+00  0.0000000000000D+00  0.0000000000000D+00
292  2.9100000000000D+00  0.0000000000000D+00  0.0000000000000D+00
293  2.9200000000000D+00  0.0000000000000D+00  0.0000000000000D+00
294  2.9300000000000D+00  0.0000000000000D+00  0.0000000000000D+00
295  2.9400000000000D+00  0.0000000000000D+00  0.0000000000000D+00
296  2.9500000000000D+00  0.0000000000000D+00  0.0000000000000D+00
297  2.9600000000000D+00  0.0000000000000D+00  0.0000000000000D+00
298  2.9700000000000D+00  0.0000000000000D+00  0.0000000000000D+00
299  2.9800000000000D+00  0.0000000000000D+00  0.0000000000000D+00
300  2.9900000000000D+00  0.0000000000000D+00  0.0000000000000D+00
301  3.0000000000000D+00  0.0000000000000D+00  0.0000000000000D+00
302  3.0100000000000D+00  0.0000000000000D+00  0.0000000000000D+00
303  3.0200000000000D+00  0.0000000000000D+00  0.0000000000000D+00
304  3.0300000000000D+00  0.0000000000000D+00  0.0000000000000D+00
305  3.0400000000000D+00  0.0000000000000D+00  0.0000000000000D+00
306  3.0500000000000D+00  0.0000000000000D+00  0.0000000000000D+00
307  3.0600000000000D+00  0.0000000000000D+00  0.0000000000000D+00
308  3.0700000000000D+00  0.0000000000000D+00  0.0000000000000D+00
309  3.0800000000000D+00  0.0000000000000D+00  0.0000000000000D+00
310  3.0900000000000D+00  0.0000000000000D+00  0.0000000000000D+00
311  3.1000000000000D+00  0.0000000000000D+00  0.0000000000000D+00
312  3.1100000000000D+00  0.0000000000000D+00  0.0000000000000D+00
313  3.1200000000000D+00  0.0000000000000D+00  0.0000000000000D+00
314  3.1300000000000D+00  0.0000000000000D+00  0.0000000000000D+00
315  3.1400000000000D+00  0.0000000000000D+00  0.0000000000000D+00
316  3.1500000000000D+00  0.0000000000000D+00  0.0000000000000D+00
317  3.1600000000000D+00  0.0000000000000D+00  0.0000000000000D+00
318  3.1700000000000D+00  0.0000000000000D+00  0.0000000000000D+00
319  3.1800000000000D+00  0.0000000000000D+00  0.0000000000000D+00
320  3.1900000000000D+00  0.0000000000000D+00  0.0000000000000D+00
321  3.2000000000000D+00  0.0000000000000D+00  0.0000000000000D+00
322  3.2100000000000D+00  0.0000000000000D+00  0.0000000000000D+00
323  3.2200000000000D+00  0.0000000000000D+00  0.0000000000000D+00
324  3.2300000000000D+00  0.0000000000000D+00  0.0000000000000D+00
325  3.2400000000000D+00  0.0000000000000D+00  0.0000000000000D+00
326  3.2500000000000D+00  0.0000000000000D+00  0.0000000000000D+00
327  3.2600000000000D+00  0.0000000000000D+00  0.0000000000000D+00
328  3.2700000000000D+00  0.0000000000000D+00  0.0000000000000D+00
329  3.2800000000000D+00  0.0000000000000D+00  0.0000000000000D+00
330  3.2900000000000D+00  0.0000000000000D+00  0.0000000000000D+00
331  3.3000000000000D+00  0.0000000000000D+00  0.0000000000000D+00
332  3.3100000000000D+00  0.0000000000000D+00  0.0000000000000D+00
333  3.3200000000000D+00  0.0000000000000D+00  0.0000000000000D+00
334  3.3300000000000D+00  0.0000000000000D+00  0.0000000000000D+00
335  3.3400000000000D+00  0.0000000000000D+00  0.0000000000000D+00
336  3.3500000000000D+00  0.0000000000000D+00  0.0000000000000D+00
337  3.3600000000000D+00  0.0000000000000D+00  0.0000000000000D+00
338  3.3700000000000D+00  0.0000000000000D+00  0.0000000000000D+00
339  3.3800000000000D+00  0.0000000000000D+00  0.0000000000000D+00
340  3.3900000000000D+00  0.0000000000000D+00  0.0000000000000D+00
341  3.4000000000000D+00  0.0000000000000D+00  0.0000000000000D+00
342  3.4100000000000D+00  0.0000000000000D+00  0.0000000000000D+00
343  3.4200000000000D+00  0.0000000000000D+00  0.0000000000000D+00
344  3.4300000000000D+00  0.0000000000000D+00  0.0000000000000D+00
345  3.4400000000000D+00  0.0000000000000D+00  0.0000000000000D+00
346  3.4500000000000D+00  0.0000000000000D+00  0.0000000000000D+00
347  3.4600000000000D+00  0.0000000000000D+00  0.0000000000000D+00
348  3.4700000000000D+00  0.0000000000000D+00  0.0000000000000D+00
349  3.4800000000000D+00  0.0000000000000D+00  0.0000000000000D+00
350  3.4900000000000D+00  0.0000000000000D+00  0.0000000000000D+00
351  3.5000000000000D+00  0.0000000000000D+00  0.0000000000000D+00
352  3.5100000000000D+00  0.0000000000000D+00  0.0000000000000D+00
353  3.5200000000000D+00  0.0000000000000D+00  0.0000000000000D+00
354  3.5300000000000D+00  0.0000000000000D+00  0.0000000000000D+00
355  3.5400000000000D+00  0.0000000000000D+00  0.0000000000000D+00
356  3.5500000000000D+00  0.0000000000000D+00  0.0000000000000D+00
357  3.5600000000000D+00  0.0000000000000D+00  0.0000000000000D+00
358  3.5700000000000D+00  0.0000000000000D+00  0.0000000000000D+00
359  3.5800000000000D+00  0.0000000000000D+00  0.0000000000000D+00
360  3.5900000000000D+00  0.0000000000000D+00  0.0000000000000D+00
361  3.6000000000000D+00  0.0000000000000D+00  0.0000000000000D+00
362  3.6100000000000D+00  0.0000000000000D+00  0.0000000000000D+00
363  3.6200000000000D+00  0.0000000000000D+00  0.0000000000000D+00
364  3.6300000000000D+00  0.0000000000000D+00  0.0000000000000D+00
365  3.6400000000000D+00  0.0000000000000D+00  0.0000000000000D+00
366  3.6500000000000D+00  0.0000000000000D+00  0.0000000000000D+00
367  3.6600000000000D+00  0.0000000000000D+00  0.0000000000000D+00
368  3.6700000000000D+00  0.0000000000000D+00  0.0000000000000D+00
369  3.6800000000000D+00  0.0000000000000D+00  0.0000000000000D+00
370  3.6900000000000D+00  0.0000000000000D+00  0.0000000000000D+00
371  3.7000000000000D+00  0.0000000000000D+00  0.0000000000000D+00
372  3.7100000000000D+00  0.0000000000000D+00  0.0000000000000D+00
373  3.7200000000000D+00  0.0000000000000D+00  0.0000000000000D+00
374  3.7300000000000D+00  0.0000000000000D+00  0.0000000000000D+00
375  3.7400000000000D+00  0.0000000000000D+00  0.0000000000000D+00
376  3.7500000000000D+00  0.0000000000000D+00  0.0000000000000D+00
377  3.7600000000000D+00  0.0000000000000D+00  0.0000000000000D+00
378  3.7700000000000D+00  0.0000000000000D+00  0.0000000000000D+00
379  3.7800000000000D+00  0.0000000000000D+00  0.0000000000000D+00
380  3.7900000000000D+00  0.0000000000000D+00  0.0000000000000D+00
381  3.8000000000000D+00  0.0000000000000D+00  0.0000000000000D+00
382  3.8100000000000D+00  0.0000000000000D+00  0.0000000000000D+00
383  3.8200000000000D+00  0.0000000000000D+00  0.0000000000000D+00
384  3.8300000000000D+00  0.0000000000000D+00  0.0000000000000D+00
385  3.8400000000000D+00  0.0000000000000D+00  0.0000000000000D+00
386  3.8500000000000D+00  0.0000000000000D+00  0.0000000000000D+00
387  3.8600000000000D+00  0.0000000000000D+00  0.0000000000000D+00
388  3.8700000000000D+00  0.0000000000000D+00  0.0000000000000D+00
389  3.8800000000000D+00  0.0000000000000D+00  0.0000000000000D+00
390  3.8900000000000D+00  0.0000000000000D+00  0.0000000000000D+00
391  3.9000000000000D+00  0.0000000000000D+00  0.0000000000000D+00
392  3.9100000000000D+00  0.0000000000000D+00  0.0000000000000D+00
393  3.9200000000000D+00  0.0000000000000D+00  0.0000000000000D+00
394  3.9300000000000D+00  0.0000000000000D+00  0.0000000000000D+00
395  3.9400000000000D+00  0.0000000000000D+00  0.0000000000000D+00
396  3.9500000000000D+00  0.0000000000000D+00  0.0000000000000D+00
397  3.9600000000000D+00  0.0000000000000D+00  0.0000000000000D+00
398  3.9700000000000D+00  0.0000000000000D+00  0.0000000000000D+00
399  3.9800000000000D+00  0.0000000000000D+00  0.0000000000000D+00
400  3.9900000000000D+00  0.0000000000000D+00  0.0000000000000D+00
401  4.0000000000000D+00  0.0000000000000D+00  0.0000000000000D+00
402  4.0100000000000D+00  0.0000000000000D+00  0.0000000000000D+00
403  4.0200000000000D+00  0.0000000000000D+00  0.0000000000000D+00
404  4.0300000000000D+00  0.0000000000000D+00  0.0000000000000D+00
405  4.0400000000000D+00  0.0000000000000D+00  0.0000000000000D+00
406  4.0500000000000D+00  0.0000000000000D+00  0.0000000000000D+00
407  4.0600000000000D+00  0.0000000000000D+00  0.0000000000000D+00
408  4.0700000000000D+00  0.0000000000000D+00  0.0000000000000D+00
409  4.0800000000000D+00  0.0000000000000D+00  0.0000000000000D+00
410  4.0900000000000D+00  0.0000000000000D+00  0.0000000000000D+00
411  4.1000000000000D+00  0.0000000000000D+00  0.0000000000000D+00
412  4.1100000000000D+00  0.0000000000000D+00  0.0000000000000D+00
413  4.1200000000000D+00  0.0000000000000D+00  0.0000000000000D+00
414  4.1300000000000D+00  0.0000000000000D+00  0.0000000000000D+00
415  4.1400000000000D+00  0.0000000000000D+00  0.0000000000000D+00
416  4.1500000000000D+00  0.0000000000000D+00  0.0000000000000D+00
417  4.1600000000000D+00  0.0000000000000D+00  0.0000000000000D+00
418  4.1700000000000D+00  0.0000000000000D+00  0.0000000000000D+00
419  4.1800000000000D+00  0.0000000000000D+00  0.0000000000000D+00
420  4.1900000000000D+00  0.0000000000000D+00  0.0000000000000D+00
421  4.2000000000000D+00  0.0000000000000D+00  0.0000000000000D+00
422  4.2100000000000D+00  0.0000000000000D+00  0.0000000000000D+00
423  4.2200000000000D+00  0.0000000000000D+00  0.0000000000000D+00
424  4.2300000000000D+00  0.0000000000000D+00  0.0000000000000D+00
425  4.2400000000000D+00  0.0000000000000D+00  0.0000000000000D+00
426  4.2500000000000D+00  0.0000000000000D+00  0.0000000000000D+00
427  4.2600000000000D+00  0.0000000000000D+00  0.0000000000000D+00
428  4.2700000000000D+00  0.0000000000000D+00  0.0000000000000D+00
429  4.2800000000000D+00  0.0000000000000D+00  0.0000000000000D+00
430  4.2900000000000D+00  0.0000000000000D+00  0.0000000000000D+00
431  4.3000000000000D+00  0.0000000000000D+00  0.0000000000000D+00
432  4.3100000000000D+00  0.0000000000000D+00  0.0000000000000D+00
433  4.3200000000000D+00  0.0000000000000D+00  0.0000000000000D+00
434  4.3300000000000D+00  0.0000000000000D+00  0.0000000000000D+00
435  4.3400000000000D+00  0.0000000000000D+00  0.0000000000000D+00
436  4.3500000000000D+00  0.0000000000000D+00  0.0000000000000D+00
437  4.3600000000000D+00  0.0000000000000D+00  0.0000000000000D+00
438  4.3700000000000D+00  0.0000000000000D+00  0.0000000000000D+00
439  4.3800000000000D+00  0.0000000000000D+00  0.0000000000000D+00
440  4.3900000000000D+00  0.0000000000000D+00  0.0000000000000D+00
441  4.4000000000000D+00  0.0000000000000D+00  0.0000000000000D+00
442  4.4100000000000D+00  0.0000000000000D+00  0.0000000000000D+00
443  4.4200000000000D+00  0.0000000000000D+00  0.0000000000000D+00