<?xml version="1.0" encoding="UTF-8" ?>
<psml version="1.1" energy_unit="hartree" length_unit="bohr"
 uuid="25f0bc80-53b5-11e8-7d02-c0aa7de55052"
 xmlns="http://esl.cecam.org/PSML/ns/1.1">
<provenance creator="ONCVPSP-3.3.0+psml-3.3.0-73 (fully-relativistic)"
 date="2018-05-09">
<annotation action="semilocal-pseudopotential-generation"
 action-cont="projectors-generation" />
<input-file name="oncvpsp-input">
<![CDATA[# atsym z nc nv iexc psfile
Hg 80 10 4 -116133 upf
# n l f
1 0 2.0
2 0 2.0
2 1 6.0
3 0 2.0
3 1 6.0
3 2 10.0
4 0 2.0
4 1 6.0
4 2 10.0
4 3 14.0
5 0 2.0
5 1 6.0
5 2 10.0
6 0 2.0
# lmax
3
# l rc ep ncon nbas qcut
0 1.4 0.0 4 8 9.0
1 1.45 0.0 4 8 9.0
2 1.4 0.0 4 8 9.0
3 1.6 0.1 4 8 6.8
# lloc lpopt rc5 dvloc0
4 5 1.4 0.0
# l nproj debl
0 2 1.0
1 2 2.8
2 2 1.8
3 1 1.5
# icmod fcfact rcfact
3 5.0 1.37
# epsh1 epsh2 depsh
-12.0 12.0 0.02
# rlmax drl
6.0 0.01
 0
]]>
</input-file>
</provenance>
<pseudo-atom-spec atomic-label="Hg" atomic-number="80" z-pseudo="20"
 flavor="Hamann&apos;s oncvpsp" relativity="dirac" spin-dft="no"
 core-corrections="yes">
<annotation pseudo-energy="-155.680201713" />
<exchange-correlation>
<annotation oncvpsp-xc-code="-116133" oncvpsp-xc-type="libxc-interface" />
<libxc-info number-of-functionals="2">
<functional name="Perdew, Burke &amp; Ernzerhof SOL (GGA)" type="exchange"
 id="116" />
<functional name="Perdew, Burke &amp; Ernzerhof SOL (GGA)" type="correlation"
 id="133" />
</libxc-info>
</exchange-correlation>
<valence-configuration total-valence-charge="20">
<shell n="5" l="s" occupation="2" />
<shell n="5" l="p" occupation="6" />
<shell n="5" l="d" occupation="10" />
<shell n="6" l="s" occupation="2" />
</valence-configuration>
</pseudo-atom-spec>
<grid npts="457">
<annotation type="sampled from oncvpsp log grid"
 recipe="r(i:1..N) = r1*exp(a*(i-1)) + r=0; resampled"
 recipe-cont="r1: scale; a: step" scale="0.625000000000E-05"
 step="0.119285708653E-01" delta="0.500000000000E-02" rmax="44.1080184274" />
<grid-data>
  0.000000000000E+00  5.036716794685E-03  1.006044653004E-02  1.509227403831E-02
  2.009495242827E-02  2.520674221625E-02  3.050738058830E-02  3.562473008824E-02
  4.110718453678E-02  4.631512683008E-02  5.156410335150E-02  5.672722906228E-02
  6.240733975628E-02  6.784209610731E-02  7.287563178056E-02  7.828262999150E-02
  8.409079974550E-02  8.925880031034E-02  9.474441267004E-02  1.005671564146E-01
  1.067477507570E-01  1.119646129040E-01  1.174364279700E-01  1.231756557421E-01
  1.291953649286E-01  1.355092629178E-01  1.421317269910E-01  1.473101156723E-01
  1.526771723584E-01  1.582397709279E-01  1.640050357007E-01  1.699803505620E-01
  1.761733684197E-01  1.825920210056E-01  1.892445290339E-01  1.961394127302E-01
  2.032855027437E-01  2.106919514570E-01  2.157788979330E-01  2.209886636447E-01
  2.263242139397E-01  2.317885857611E-01  2.373848893757E-01  2.431163101448E-01
  2.489861103369E-01  2.549976309849E-01  2.611542937874E-01  2.674596030566E-01
  2.739171477128E-01  2.805306033271E-01  2.873037342139E-01  2.942403955727E-01
  3.013445356834E-01  3.086201981530E-01  3.160715242172E-01  3.237027550979E-01
  3.315182344170E-01  3.395224106687E-01  3.477198397519E-01  3.561151875629E-01
  3.647132326514E-01  3.735188689406E-01  3.825371085123E-01  3.917730844602E-01
  4.012320538114E-01  4.109194005186E-01  4.208406385247E-01  4.258907261870E-01
  4.310014149013E-01  4.361734318801E-01  4.414075130626E-01  4.467044032194E-01
  4.520648560580E-01  4.574896343307E-01  4.629795099427E-01  4.685352640620E-01
  4.741576872307E-01  4.798475794775E-01  4.856057504312E-01  4.914330194364E-01
  4.973302156697E-01  5.032981782577E-01  5.093377563968E-01  5.154498094735E-01
  5.216352071872E-01  5.278948296735E-01  5.342295676296E-01  5.406403224411E-01
  5.471280063104E-01  5.536935423861E-01  5.603378648948E-01  5.670619192735E-01
  5.738666623048E-01  5.807530622524E-01  5.877220989995E-01  5.947747641875E-01
  6.019120613577E-01  6.091350060940E-01  6.164446261671E-01  6.238419616811E-01
  6.313280652213E-01  6.389040020040E-01  6.465708500280E-01  6.543297002283E-01
  6.621816566311E-01  6.701278365107E-01  6.781693705488E-01  6.863074029954E-01
  6.945430918313E-01  7.028776089333E-01  7.113121402405E-01  7.198478859234E-01
  7.284860605545E-01  7.372278932811E-01  7.460746280005E-01  7.550275235365E-01
  7.640878538189E-01  7.732569080648E-01  7.825359909615E-01  7.919264228531E-01
  8.014295399273E-01  8.110466944064E-01  8.207792547393E-01  8.306286057962E-01
  8.405961490657E-01  8.506833028545E-01  8.608915024888E-01  8.712222005187E-01
  8.816768669249E-01  8.922569893280E-01  9.029640731999E-01  9.137996420783E-01
  9.247652377832E-01  9.358624206366E-01  9.470927696843E-01  9.584578829205E-01
  9.699593775155E-01  9.815988900457E-01  9.933780767263E-01  1.005298613647E+00
  1.017362197011E+00  1.029570543375E+00  1.041925389895E+00  1.054428494574E+00
  1.067081636509E+00  1.079886616147E+00  1.092845255541E+00  1.105959398607E+00
  1.119230911391E+00  1.132661682327E+00  1.146253622515E+00  1.160008665985E+00
  1.173928769977E+00  1.188015915217E+00  1.202272106200E+00  1.216699371474E+00
  1.231299763932E+00  1.246075361099E+00  1.261028265432E+00  1.276160604617E+00
  1.291474531873E+00  1.306972226255E+00  1.322655892970E+00  1.338527763686E+00
  1.354590096850E+00  1.370845178012E+00  1.387295320148E+00  1.403942863990E+00
  1.420790178358E+00  1.437839660498E+00  1.455093736424E+00  1.472554861261E+00
  1.490225519597E+00  1.508108225832E+00  1.526205524542E+00  1.544519990836E+00
  1.563054230726E+00  1.581810881495E+00  1.600792612073E+00  1.620002123418E+00
  1.639442148899E+00  1.659115454686E+00  1.679024840142E+00  1.699173138224E+00
  1.719563215882E+00  1.740197974473E+00  1.761080350166E+00  1.782213314368E+00
  1.803599874141E+00  1.825243072631E+00  1.847145989502E+00  1.869311741376E+00
  1.891743482273E+00  1.914444404060E+00  1.937417736909E+00  1.960666749752E+00
  1.984194750749E+00  2.008005087758E+00  2.032101148811E+00  2.056486362596E+00
  2.081164198948E+00  2.106138169335E+00  2.131411827367E+00  2.156988769295E+00
  2.182872634527E+00  2.209067106141E+00  2.235575911415E+00  2.262402822352E+00
  2.289551656220E+00  2.317026276095E+00  2.344830591408E+00  2.372968558505E+00
  2.401444181207E+00  2.430261511381E+00  2.459424649518E+00  2.488937745312E+00
  2.518804998256E+00  2.549030658235E+00  2.579619026134E+00  2.610574454447E+00
  2.641901347901E+00  2.673604164076E+00  2.705687414044E+00  2.738155663013E+00
  2.771013530969E+00  2.804265693341E+00  2.837916881661E+00  2.871971884241E+00
  2.906435546852E+00  2.941312773414E+00  2.976608526695E+00  3.012327829015E+00
  3.048475762963E+00  3.085057472119E+00  3.122078161784E+00  3.159543099726E+00
  3.197457616923E+00  3.235827108326E+00  3.274657033625E+00  3.313952918029E+00
  3.353720353045E+00  3.393964997282E+00  3.434692577249E+00  3.475908888176E+00
  3.517619794834E+00  3.559831232372E+00  3.602549207161E+00  3.645779797647E+00
  3.689529155219E+00  3.733803505081E+00  3.778609147142E+00  3.823952456908E+00
  3.869839886391E+00  3.916277965027E+00  3.963273300608E+00  4.010832580215E+00
  4.058962571178E+00  4.107670122032E+00  4.156962163496E+00  4.206845709458E+00
  4.257327857972E+00  4.308415792267E+00  4.360116781774E+00  4.412438183156E+00
  4.465387441354E+00  4.518972090650E+00  4.573199755738E+00  4.628078152807E+00
  4.683615090640E+00  4.739818471728E+00  4.796696293389E+00  4.854256648909E+00
  4.912507728696E+00  4.971457821441E+00  5.031115315298E+00  5.091488699081E+00
  5.152586563470E+00  5.214417602232E+00  5.276990613459E+00  5.340314500820E+00
  5.404398274830E+00  5.469251054128E+00  5.534882066778E+00  5.601300651579E+00
  5.668516259398E+00  5.736538454511E+00  5.805376915965E+00  5.875041438956E+00
  5.945541936224E+00  6.016888439459E+00  6.089091100732E+00  6.162160193941E+00
  6.236106116268E+00  6.310939389663E+00  6.386670662339E+00  6.463310710287E+00
  6.540870438811E+00  6.619360884077E+00  6.698793214686E+00  6.779178733262E+00
  6.860528878061E+00  6.942855224598E+00  7.026169487293E+00  7.110483521140E+00
  7.195809323394E+00  7.282159035275E+00  7.369544943698E+00  7.457979483022E+00
  7.547475236819E+00  7.638044939660E+00  7.729701478936E+00  7.822457896684E+00
  7.916327391444E+00  8.011323320141E+00  8.107459199983E+00  8.204748710383E+00
  8.303205694907E+00  8.402844163246E+00  8.503678293205E+00  8.605722432724E+00
  8.708991101916E+00  8.813498995139E+00  8.919260983081E+00  9.026292114878E+00
  9.134607620256E+00  9.244222911700E+00  9.355153586640E+00  9.467415429680E+00
  9.581024414836E+00  9.695996707814E+00  9.812348668308E+00  9.930096852327E+00
  1.004925801456E+01  1.016984911073E+01  1.029188730006E+01  1.041538994766E+01
  1.054037462703E+01  1.066685912256E+01  1.079486143203E+01  1.092439976921E+01
  1.105549256644E+01  1.118815847724E+01  1.132241637897E+01  1.145828537551E+01
  1.159578480002E+01  1.173493421762E+01  1.187575342823E+01  1.201826246937E+01
  1.216248161900E+01  1.230843139843E+01  1.245613257521E+01  1.260560616611E+01
  1.275687344011E+01  1.290995592139E+01  1.306487539244E+01  1.322165389715E+01
  1.338031374392E+01  1.354087750885E+01  1.370336803895E+01  1.386780845542E+01
  1.403422215689E+01  1.420263282277E+01  1.437306441664E+01  1.454554118964E+01
  1.472008768392E+01  1.489672873612E+01  1.507548948096E+01  1.525639535473E+01
  1.543947209899E+01  1.562474576417E+01  1.581224271334E+01  1.600198962590E+01
  1.619401350141E+01  1.638834166343E+01  1.658500176339E+01  1.678402178455E+01
  1.698543004597E+01  1.718925520652E+01  1.739552626900E+01  1.760427258423E+01
  1.781552385524E+01  1.802931014150E+01  1.824566186320E+01  1.846460980556E+01
  1.868618512322E+01  1.891041934470E+01  1.913734437684E+01  1.936699250936E+01
  1.959939641947E+01  1.983458917651E+01  2.007260424662E+01  2.031347549758E+01
  2.055723720355E+01  2.080392405000E+01  2.105357113860E+01  2.130621399226E+01
  2.156188856017E+01  2.182063122289E+01  2.208247879756E+01  2.234746854313E+01
  2.261563816565E+01  2.288702582364E+01  2.316167013352E+01  2.343961017513E+01
  2.372088549723E+01  2.400553612319E+01  2.429360255667E+01  2.458512578735E+01
  2.488014729680E+01  2.517870906436E+01  2.548085357313E+01  2.578662381601E+01
  2.609606330180E+01  2.640921606143E+01  2.672612665416E+01  2.704684017401E+01
  2.737140225610E+01  2.769985908317E+01  2.803225739217E+01  2.836864448088E+01
  2.870906821465E+01  2.905357703323E+01  2.940221995762E+01  2.975504659712E+01
  3.011210715628E+01  3.047345244216E+01  3.083913387146E+01  3.120920347792E+01
  3.158371391965E+01  3.196271848669E+01  3.234627110853E+01  3.273442636183E+01
  3.312723947817E+01  3.352476635191E+01  3.392706354814E+01  3.433418831071E+01
  3.474619857044E+01  3.516315295329E+01  3.558511078873E+01  3.601213211819E+01
  3.644427770361E+01  3.688160903605E+01  3.732418834449E+01  3.777207860462E+01
  3.822534354788E+01  3.868404767045E+01  3.914825624250E+01  3.961803531741E+01
  4.009345174121E+01  4.057457316211E+01  4.106146804005E+01  4.155420565653E+01
  4.205285612441E+01  4.255749039791E+01  4.306818028268E+01  4.358499844607E+01
  4.410801842743E+01
</grid-data>
</grid>
<valence-charge total-charge="20" is-unscreening-charge="yes"
 rescaled-to-z-pseudo="no">
<radfunc>
<data npts="457">
  1.501455148450E+00  1.503207575487E+00  1.508447177690E+00  1.517192015974E+00
  1.529357365757E+00  1.545365947568E+00  1.565789140977E+00  1.589203587721E+00
  1.618324825053E+00  1.649861190050E+00  1.685471543561E+00  1.724253588765E+00
  1.771229193274E+00  1.820412837636E+00  1.869670377712E+00  1.926561362896E+00
  1.992276024045E+00  2.054766018413E+00  2.125246981805E+00  2.204747571703E+00
  2.294429620992E+00  2.374382068908E+00  2.462435850159E+00  2.559415750594E+00
  2.666229940217E+00  2.783877852335E+00  2.913458561480E+00  3.019197060426E+00
  3.132876983019E+00  3.255090139534E+00  3.386469951175E+00  3.527693608149E+00
  3.679484128873E+00  3.842612252003E+00  4.017898075369E+00  4.206212334915E+00
  4.408477191835E+00  4.625666366800E+00  4.779254349878E+00  4.940245511309E+00
  5.108964983875E+00  5.285746718885E+00  5.470932811030E+00  5.664872641197E+00
  5.867921811562E+00  6.080440844715E+00  6.302793615909E+00  6.535345484794E+00
  6.778461090232E+00  7.032501769061E+00  7.297822557060E+00  7.574768727911E+00
  7.863671823859E+00  8.164845130063E+00  8.478578543574E+00  8.805132787588E+00
  9.144732922416E+00  9.497561106642E+00  9.863748565674E+00  1.024336673047E+01
  1.063641751728E+01  1.104282273007E+01  1.146241258115E+01  1.189491334376E+01
  1.233993417210E+01  1.279695315150E+01  1.326530267376E+01  1.350347419887E+01
  1.374415427076E+01  1.398721164787E+01  1.423250308398E+01  1.447987283962E+01
  1.472915219820E+01  1.498015898972E+01  1.523269712524E+01  1.548655614546E+01
  1.574151078713E+01  1.599732057126E+01  1.625372941747E+01  1.651046528905E+01
  1.676723987365E+01  1.702374830478E+01  1.727966892971E+01  1.753466312945E+01
  1.778837519698E+01  1.804043227997E+01  1.829044439463E+01  1.853800451727E+01
  1.878268876064E+01  1.902405664193E+01  1.926165144958E+01  1.949500071581E+01
  1.972361680207E+01  1.994699760404E+01  2.016462738284E+01  2.037597772875E+01
  2.058050866312E+01  2.077766988388E+01  2.096690215898E+01  2.114763887177E+01
  2.131930772084E+01  2.148133257632E+01  2.163313549271E+01  2.177413887773E+01
  2.190376781432E+01  2.202145253193E+01  2.212663102087E+01  2.221875178197E+01
  2.229727670137E+01  2.236168403840E+01  2.241147151196E+01  2.244615946883E+01
  2.246529411472E+01  2.246845078679E+01  2.245523724399E+01  2.242529694957E+01
  2.237831231783E+01  2.231400789575E+01  2.223215344833E+01  2.213256691519E+01
  2.201511720535E+01  2.187972679635E+01  2.172637410390E+01  2.155509558890E+01
  2.136598756928E+01  2.115920770611E+01  2.093497613506E+01  2.069357621732E+01
  2.043535488713E+01  2.016072257672E+01  1.987015270392E+01  1.956418071192E+01
  1.924340265583E+01  1.890847333569E+01  1.856010398075E+01  1.819905949517E+01
  1.782615528008E+01  1.744225365204E+01  1.704825988188E+01  1.664511788213E+01
  1.623380557417E+01  1.581532996903E+01  1.539072199728E+01  1.496103112492E+01
  1.452731979231E+01  1.409065771313E+01  1.365211606978E+01  1.321276164047E+01
  1.277365089254E+01  1.233582407516E+01  1.190029934443E+01  1.146806695346E+01
  1.104008354099E+01  1.061726655361E+01  1.020048883910E+01  9.790573452304E+00
  9.388288718900E+00  8.994343607821E+00  8.609383468249E+00  8.233986192399E+00
  7.868658869903E+00  7.513835003053E+00  7.169872353815E+00  6.837051492868E+00
  6.515575117475E+00  6.205568198344E+00  5.907079005653E+00  5.620081051018E+00
  5.344477460030E+00  5.080112260178E+00  4.826785507507E+00  4.584260427181E+00
  4.352272177154E+00  4.130540737655E+00  3.918773635679E+00  3.716668563898E+00
  3.523915799942E+00  3.340200430309E+00  3.165204382912E+00  2.998608273004E+00
  2.840093068369E+00  2.689341580556E+00  2.546039789673E+00  2.409878010961E+00
  2.280551911314E+00  2.157763385445E+00  2.041221300058E+00  1.930642115157E+00
  1.825750392543E+00  1.726279199594E+00  1.631970417732E+00  1.542574964170E+00
  1.457852935322E+00  1.377573679933E+00  1.301515809635E+00  1.229467154211E+00
  1.161224668462E+00  1.096594297122E+00  1.035390803836E+00  9.774375697833E-01
  9.225663670717E-01  8.706171116278E-01  8.214375998609E-01  7.748832329879E-01
  7.308167325114E-01  6.891078499707E-01  6.496330737302E-01  6.122753352393E-01
  5.769237168818E-01  5.434731632459E-01  5.118241973725E-01  4.818826432946E-01
  4.535593559523E-01  4.267699593608E-01  4.014345937242E-01  3.774776720189E-01
  3.548276464204E-01  3.334167848174E-01  3.131809575375E-01  2.940594343111E-01
  2.759946914099E-01  2.589322288235E-01  2.428203972755E-01  2.276102348269E-01
  2.132553127746E-01  1.997115905177E-01  1.869372790415E-01  1.748927126472E-01
  1.635402285474E-01  1.528440539377E-01  1.427702001549E-01  1.332863635330E-01
  1.243618325760E-01  1.159674010741E-01  1.080752868000E-01  1.006590554394E-01
  9.369354941906E-02  8.715482131641E-02  8.102007154790E-02  7.526759004881E-02
  6.987670169692E-02  6.482771518773E-02  6.010187516737E-02  5.568131738317E-02
  5.154902664970E-02  4.768879743729E-02  4.408519690090E-02  4.072353017812E-02
  3.758980779299E-02  3.467071501081E-02  3.195358299513E-02  2.942636162469E-02
  2.707759383301E-02  2.489639133914E-02  2.287241164322E-02  2.099583616641E-02
  1.925734942089E-02  1.764811910263E-02  1.615977700738E-02  1.478440067824E-02
  1.351449570252E-02  1.234297858475E-02  1.126316013217E-02  1.026872929922E-02
  9.353737446583E-03  8.512582979961E-03  7.739996342255E-03  7.031025340797E-03
  6.381020798452E-03  5.785622523538E-03  5.240745598765E-03  4.742566993541E-03
  4.287512507238E-03  3.872244053264E-03  3.493647295177E-03  3.148819646694E-03
  2.835058647345E-03  2.549850724817E-03  2.290860353893E-03  2.055919620262E-03
  1.843018195651E-03  1.650293728641E-03  1.476022653341E-03  1.318611415868E-03
  1.176588116370E-03  1.048594562226E-03  9.333787260433E-04  8.297876002906E-04
  7.367604387595E-04  6.533223736962E-04  5.785783962735E-04  5.117076871718E-04
  4.519582833656E-04  3.986420667712E-04  3.511300601725E-04  3.088480157981E-04
  2.712722820418E-04  2.379259340782E-04  2.083751544952E-04  1.822258505227E-04
  1.591204949536E-04  1.387351784144E-04  1.207768612134E-04  1.049808135796E-04
  9.110823367120E-05  7.894403328301E-05  6.829478170427E-05  5.898679866844E-05
  5.086438779476E-05  4.378820234536E-05  3.763373551423E-05  3.228992782749E-05
  2.765788457125E-05  2.364969647699E-05  2.018735718964E-05  1.720177132182E-05
  1.463184716428E-05  1.242366837850E-05  1.052973924639E-05  8.908298294653E-06
  7.522695350226E-06  6.340827318455E-06  5.334628208225E-06  4.479609158377E-06
  3.754444447256E-06  3.140599691964E-06  2.621998665358E-06  2.184725376433E-06
  1.816758272930E-06  1.507733633002E-06  1.248735414956E-06  1.032109029859E-06
  8.512966904681E-07  7.006921710777E-07  5.755129860056E-07  4.716881592196E-07
  3.857599137682E-07  3.147977570790E-07  2.563235767301E-07  2.082464909962E-07
  1.688063194040E-07  1.365246508512E-07  1.101625907605E-07  8.868436452591E-08
  7.122604246315E-08  5.706873194774E-08  4.561565578607E-08  3.637260250159E-08
  2.893129453823E-08  2.295527479359E-08  1.816796080644E-08  1.434255974216E-08
  1.129357644550E-08  8.869681646293E-09  6.947738284619E-09  5.427811220166E-09
  4.229009643699E-09  3.286032632675E-09  2.546306784615E-09  1.967620996225E-09
  1.516177488434E-09  1.164990341722E-09  8.925733169453E-10  6.818677895516E-10
  5.193693966537E-10  3.944186464334E-10  2.986264111438E-10  2.254100465943E-10
  1.696199664369E-10  1.272399498074E-10  9.514736501424E-11  7.092192829930E-11
  5.269365375118E-11  3.902234787739E-11  2.880241187246E-11  2.118190766012E-11
  1.552955836110E-11  1.134646935503E-11  8.229836301559E-12  5.972239109512E-12
  4.318506799441E-12  3.111444732553E-12  2.233592968961E-12  1.597498995219E-12
  1.138289390878E-12  8.080179193705E-13  5.713811859187E-13  4.024831498765E-13
  2.824009982357E-13  1.973609340390E-13  1.373763663195E-13  9.523528789932E-14
  6.575029836498E-14  4.520538411582E-14  3.094949699393E-14  2.109920749685E-14
  1.432206565896E-14  9.679428739149E-15  6.512918559218E-15  4.362751230288E-15
  2.909248903669E-15  1.931138396157E-15  1.275951549080E-15  8.391104280545E-16
  5.492167767301E-16  3.577531847384E-16  2.319066775791E-16  1.495917776034E-16
  9.601548945495E-17  6.131801114089E-17  3.896025250831E-17  2.462724618754E-17
  1.548614952575E-17  9.686733433106E-18  6.026844976965E-18  3.729525655707E-18
  2.295302247155E-18  1.404818851013E-18  8.549998619729E-19  5.174254662864E-19
  3.113407740715E-19  1.862518944679E-19  1.107673029408E-19  6.548441713972E-20
  3.848121684215E-20  2.247566917950E-20  1.304660857486E-20  7.526127180945E-21
  4.314214197834E-21  2.457281207591E-21  1.390585828913E-21  0.000000000000E+00
  0.000000000000E+00  0.000000000000E+00  0.000000000000E+00  0.000000000000E+00
  0.000000000000E+00  0.000000000000E+00  0.000000000000E+00  0.000000000000E+00
  0.000000000000E+00  0.000000000000E+00  0.000000000000E+00  0.000000000000E+00
  0.000000000000E+00  0.000000000000E+00  0.000000000000E+00  0.000000000000E+00
  0.000000000000E+00  0.000000000000E+00  0.000000000000E+00  0.000000000000E+00
  0.000000000000E+00  0.000000000000E+00  0.000000000000E+00  0.000000000000E+00
  0.000000000000E+00
</data>
</radfunc>
</valence-charge>
<pseudocore-charge matching-radius="0.764087853819"
 number-of-continuous-derivatives="4">
<annotation model-charge-form="Teter function with specified parameters" />
<radfunc>
<data npts="290">
  1.157893878591E+02  1.157809187875E+02  1.157556023250E+02  1.157133672337E+02
  1.156546490077E+02  1.155774460844E+02  1.154790606443E+02  1.153664127186E+02
  1.152265275574E+02  1.150753124093E+02  1.149048990399E+02  1.147197098769E+02
  1.144959517464E+02  1.142623221538E+02  1.140289962623E+02  1.137603171970E+02
  1.134510265324E+02  1.131579517368E+02  1.128285961137E+02  1.124585892501E+02
  1.120430667663E+02  1.116742645643E+02  1.112698472145E+02  1.108265196176E+02
  1.103407120741E+02  1.098085638845E+02  1.092259074665E+02  1.087530809727E+02
  1.082473080609E+02  1.077064627387E+02  1.071283079209E+02  1.065104938144E+02
  1.058505570779E+02  1.051459209215E+02  1.043938963356E+02  1.035916846623E+02
  1.027363817518E+02  1.018249839705E+02  1.011846967138E+02  1.005171670682E+02
  9.982144328308E+01  9.909656129757E+01  9.834154701237E+01  9.755541888122E+01
  9.673719084923E+01  9.588587566459E+01  9.500048859152E+01  9.408005155266E+01
  9.312359772964E+01  9.213017665050E+01  9.109885979248E+01  9.002874672785E+01
  8.891897183931E+01  8.776871162973E+01  8.657719264841E+01  8.534370005292E+01
  8.406758682140E+01  8.274828362483E+01  8.138530936290E+01  7.997828235912E+01
  7.852693220209E+01  7.703111220938E+01  7.549081247799E+01  7.390617347190E+01
  7.227750008078E+01  7.060527606663E+01  6.889017879455E+01  6.801682096507E+01
  6.713309412244E+01  6.623914402077E+01  6.533513129976E+01  6.442123193812E+01
  6.349763769958E+01  6.256455656949E+01  6.162221318007E+01  6.067084922229E+01
  5.971072384182E+01  5.874211401709E+01  5.776531491655E+01  5.678064023281E+01
  5.578842249073E+01  5.478901332667E+01  5.378278373583E+01  5.277012428466E+01
  5.175144528508E+01  5.072717692716E+01  4.969776936691E+01  4.866369276569E+01
  4.762543727753E+01  4.658351298101E+01  4.553844975175E+01  4.449079707197E+01
  4.344112377340E+01  4.239001770988E+01  4.133808535584E+01  4.028595132738E+01
  3.923425782211E+01  3.818366397468E+01  3.713484512457E+01  3.608849199329E+01
  3.504530976805E+01  3.400601708950E+01  3.297134494126E+01  3.194203543946E+01
  3.091884052074E+01  2.990252052784E+01  2.889384269223E+01  2.789357951386E+01
  2.690250703873E+01  2.592140303558E+01  2.495104507383E+01  2.399220850550E+01
  2.304566435485E+01  2.211217712017E+01  2.119250249322E+01  2.028738500261E+01
  1.939755558861E+01  1.852372911777E+01  1.766660184672E+01  1.682684884589E+01
  1.600512139461E+01  1.520204436050E+01  1.441821357679E+01  1.365419323255E+01
  1.291051329174E+01  1.218766695792E+01  1.148610820239E+01  1.080624937440E+01
  1.014845891283E+01  9.513059179118E+00  8.900324432031E+00  8.310478964861E+00
  7.743695425975E+00  7.200093343462E+00  6.679737874357E+00  6.182638798430E+00
  5.708749775690E+00  5.257967885741E+00  4.830133465767E+00  4.425030262294E+00
  4.042385909943E+00  3.681872748111E+00  3.343108983995E+00  3.025660207502E+00
  2.729041260404E+00  2.452718458735E+00  2.196112163675E+00  1.958599692324E+00
  1.739518555652E+00  1.538170006705E+00  1.353822877836E+00  1.185717681391E+00
  1.033070944013E+00  8.950797405191E-01  7.709263893583E-01  6.597832679322E-01
  5.608177027467E-01  4.731968864692E-01  3.960927716424E-01  3.286868891043E-01
  2.701750381774E-01  2.197717955019E-01  1.767147900507E-01  1.402686934434E-01
  1.097288772041E-01  8.442469210496E-02  6.372232920905E-02  4.702722763535E-02
  3.378600038387E-02  2.348785668734E-02  1.566550720605E-02  9.895546816701E-03
  5.798318609399E-03  3.037271814647E-03  1.317835530920E-03  3.858390886937E-04
  2.551843406599E-05  5.715580159402E-05  3.344069308237E-04  7.413759321609E-04
  1.189502411387E-03  1.614328431786E-03  1.972214178673E-03  2.237070688881E-03
  2.397175666770E-03  2.452134238414E-03  2.410040571756E-03  2.284888755753E-03
  2.094272396431E-03  1.857402327777E-03  1.593460983430E-03  1.320300712414E-03
  1.053482063904E-03  8.056372457669E-04  5.861340113739E-04  4.010065592312E-04
  2.531130067209E-04  1.424739240214E-04  6.674350375957E-05  2.176431134909E-05
  2.158212080221E-06  1.909885766529E-06  1.490508068785E-05  3.539307694981E-05
  5.835128104504E-05  7.973894222893E-05  9.663610936883E-05  1.072725696897E-04
  1.109590955234E-04  1.079394092487E-04  9.918550368159E-05  8.616110487343E-05
  7.057807323287E-05  5.416851000424E-05  3.849153444890E-05  2.478853116313E-05
  1.389465659380E-05  6.208125527937E-06  1.712872455937E-06  4.515629816172E-08
  5.910083465618E-07  2.599424041825E-06  5.295999809819E-06  7.983249589376E-06
  1.011684269376E-05  1.135106167309E-05  1.155134646304E-05  1.077627878857E-05
  9.235200633500E-06  7.230380915885E-06  5.093933387752E-06  3.129437855882E-06
  1.566537937857E-06  5.339988935930E-07  5.328497260700E-08  0.000000000000E+00
  0.000000000000E+00  0.000000000000E+00  0.000000000000E+00  0.000000000000E+00
  0.000000000000E+00  0.000000000000E+00  0.000000000000E+00  0.000000000000E+00
  0.000000000000E+00  0.000000000000E+00  0.000000000000E+00  0.000000000000E+00
  0.000000000000E+00  0.000000000000E+00  0.000000000000E+00  0.000000000000E+00
  0.000000000000E+00  0.000000000000E+00  0.000000000000E+00  0.000000000000E+00
  0.000000000000E+00  0.000000000000E+00  0.000000000000E+00  0.000000000000E+00
  0.000000000000E+00  0.000000000000E+00  0.000000000000E+00  0.000000000000E+00
  0.000000000000E+00  0.000000000000E+00  0.000000000000E+00  0.000000000000E+00
  0.000000000000E+00  0.000000000000E+00  0.000000000000E+00  0.000000000000E+00
  0.000000000000E+00  0.000000000000E+00  0.000000000000E+00  0.000000000000E+00
  0.000000000000E+00  0.000000000000E+00  0.000000000000E+00  0.000000000000E+00
  0.000000000000E+00  0.000000000000E+00  0.000000000000E+00  0.000000000000E+00
  0.000000000000E+00  0.000000000000E+00  0.000000000000E+00  0.000000000000E+00
  0.000000000000E+00  0.000000000000E+00
</data>
</radfunc>
</pseudocore-charge>
<semilocal-potentials set="lj">
<slps n="5" l="s" j="0.5" rc="1.40394286399" eref="-4.33451194906">
<radfunc>
<data npts="290">
 -1.521970770612E+00 -1.528452016879E+00 -1.547812633275E+00 -1.580066183264E+00
 -1.624813095904E+00 -1.683480221195E+00 -1.757971683723E+00 -1.842889122814E+00
 -1.947788884827E+00 -2.060505270324E+00 -2.186693529989E+00 -2.322825649032E+00
 -2.485939750624E+00 -2.654670304485E+00 -2.821592785479E+00 -3.011868530629E+00
 -3.228376096952E+00 -3.431076781903E+00 -3.656069909372E+00 -3.905364604381E+00
 -4.181042459619E+00 -4.422009847710E+00 -4.682320967850E+00 -4.963063909997E+00
 -5.265301434550E+00 -5.590051741160E+00 -5.938266473388E+00 -6.215347803711E+00
 -6.506434797040E+00 -6.811803568966E+00 -7.131678495571E+00 -7.466224622474E+00
 -7.815539889135E+00 -8.179647278389E+00 -8.558487018493E+00 -8.951908980911E+00
 -9.359665430625E+00 -9.781404295882E+00 -1.007010788416E+01 -1.036465735940E+01
 -1.066486393833E+01 -1.097051495065E+01 -1.128137347551E+01 -1.159717809414E+01
 -1.191764276498E+01 -1.224245682654E+01 -1.257128513174E+01 -1.290376831581E+01
 -1.323952319789E+01 -1.357814331486E+01 -1.391919958370E+01 -1.426224108669E+01
 -1.460679597192E+01 -1.495237245923E+01 -1.529845994027E+01 -1.564453015919E+01
 -1.599003845917E+01 -1.633442507856E+01 -1.667711647947E+01 -1.701752669061E+01
 -1.735505864631E+01 -1.768910550305E+01 -1.801905191577E+01 -1.834427525654E+01
 -1.866414675991E+01 -1.897803258051E+01 -1.928529475062E+01 -1.943624168570E+01
 -1.958529202821E+01 -1.973236523130E+01 -1.987738062831E+01 -2.002025744906E+01
 -2.016091483424E+01 -2.029927184796E+01 -2.043524748853E+01 -2.056876069753E+01
 -2.069973036724E+01 -2.082807534660E+01 -2.095371444570E+01 -2.107656643907E+01
 -2.119655006784E+01 -2.131358404104E+01 -2.142758703609E+01 -2.153847769883E+01
 -2.164617464333E+01 -2.175059645162E+01 -2.185166167367E+01 -2.194928882804E+01
 -2.204339640324E+01 -2.213390286049E+01 -2.222072663782E+01 -2.230378615633E+01
 -2.238299982858E+01 -2.245828606984E+01 -2.252956331243E+01 -2.259675002368E+01
 -2.265976472793E+01 -2.271852603308E+01 -2.277295266209E+01 -2.282296349005E+01
 -2.286847758719E+01 -2.290941426843E+01 -2.294569314997E+01 -2.297723421340E+01
 -2.300395787792E+01 -2.302578508108E+01 -2.304263736872E+01 -2.305443699446E+01
 -2.306110702937E+01 -2.306257148226E+01 -2.305875543107E+01 -2.304958516589E+01
 -2.303498834413E+01 -2.301489415813E+01 -2.298923351597E+01 -2.295793923565E+01
 -2.292094625339E+01 -2.287819184642E+01 -2.282961587071E+01 -2.277516101449E+01
 -2.271477306783E+01 -2.264840120925E+01 -2.257599830995E+01 -2.249752125662E+01
 -2.241293129381E+01 -2.232219438702E+01 -2.222528160774E+01 -2.212216954221E+01
 -2.201284072538E+01 -2.189728410244E+01 -2.177549552011E+01 -2.164747825062E+01
 -2.151324355168E+01 -2.137281126619E+01 -2.122621046629E+01 -2.107348014686E+01
 -2.091466997496E+01 -2.074984110214E+01 -2.057906704862E+01 -2.040243466924E+01
 -2.022004521340E+01 -2.003201549326E+01 -1.983847917681E+01 -1.963958822589E+01
 -1.943551450218E+01 -1.922645156834E+01 -1.901261671586E+01 -1.879425325556E+01
 -1.857163311229E+01 -1.834505976996E+01 -1.811487161855E+01 -1.788144575901E+01