<?xml version="1.0" encoding="UTF-8" ?>
<psml version="1.1" energy_unit="hartree" length_unit="bohr"
 uuid="e817cee0-539f-11e8-5a9c-67c5ffbb67c8"
 xmlns="http://esl.cecam.org/PSML/ns/1.1">
<provenance creator="ONCVPSP-3.3.0+psml-3.3.0-73 (fully-relativistic)"
 date="2018-05-09">
<annotation action="semilocal-pseudopotential-generation"
 action-cont="projectors-generation" />
<input-file name="oncvpsp-input">
<![CDATA[# atsym z nc nv iexc psfile
Hg 80 10 4 -116133 upf
# n l f
1 0 2.0
2 0 2.0
2 1 6.0
3 0 2.0
3 1 6.0
3 2 10.0
4 0 2.0
4 1 6.0
4 2 10.0
4 3 14.0
5 0 2.0
5 1 6.0
5 2 10.0
6 0 2.0
# lmax
3
# l rc ep ncon nbas qcut
0 1.6 0.0 4 8 8.0
1 1.6 0.0 4 8 8.2
2 1.45 0.0 4 8 8.8
3 1.6 0.1 4 8 6.8
# lloc lpopt rc5 dvloc0
4 5 1.45 0.0
# l nproj debl
0 2 1.0
1 2 2.8
2 2 1.8
3 1 1.5
# icmod fcfact rcfact
3 5.0 1.37
# epsh1 epsh2 depsh
-12.0 12.0 0.02
# rlmax drl
6.0 0.01
 0
]]>
</input-file>
</provenance>
<pseudo-atom-spec atomic-label="Hg" atomic-number="80" z-pseudo="20"
 flavor="Hamann&apos;s oncvpsp" relativity="dirac" spin-dft="no"
 core-corrections="yes">
<annotation pseudo-energy="-156.310540232" />
<exchange-correlation>
<annotation oncvpsp-xc-code="-116133" oncvpsp-xc-type="libxc-interface" />
<libxc-info number-of-functionals="2">
<functional name="Perdew, Burke &amp; Ernzerhof SOL (GGA)" type="exchange"
 id="116" />
<functional name="Perdew, Burke &amp; Ernzerhof SOL (GGA)" type="correlation"
 id="133" />
</libxc-info>
</exchange-correlation>
<valence-configuration total-valence-charge="20">
<shell n="5" l="s" occupation="2" />
<shell n="5" l="p" occupation="6" />
<shell n="5" l="d" occupation="10" />
<shell n="6" l="s" occupation="2" />
</valence-configuration>
</pseudo-atom-spec>
<grid npts="457">
<annotation type="sampled from oncvpsp log grid"
 recipe="r(i:1..N) = r1*exp(a*(i-1)) + r=0; resampled"
 recipe-cont="r1: scale; a: step" scale="0.625000000000E-05"
 step="0.119285708653E-01" delta="0.500000000000E-02" rmax="44.1080184274" />
<grid-data>
  0.000000000000E+00  5.036716794685E-03  1.006044653004E-02  1.509227403831E-02
  2.009495242827E-02  2.520674221625E-02  3.050738058830E-02  3.562473008824E-02
  4.110718453678E-02  4.631512683008E-02  5.156410335150E-02  5.672722906228E-02
  6.240733975628E-02  6.784209610731E-02  7.287563178056E-02  7.828262999150E-02
  8.409079974550E-02  8.925880031034E-02  9.474441267004E-02  1.005671564146E-01
  1.067477507570E-01  1.119646129040E-01  1.174364279700E-01  1.231756557421E-01
  1.291953649286E-01  1.355092629178E-01  1.421317269910E-01  1.473101156723E-01
  1.526771723584E-01  1.582397709279E-01  1.640050357007E-01  1.699803505620E-01
  1.761733684197E-01  1.825920210056E-01  1.892445290339E-01  1.961394127302E-01
  2.032855027437E-01  2.106919514570E-01  2.157788979330E-01  2.209886636447E-01
  2.263242139397E-01  2.317885857611E-01  2.373848893757E-01  2.431163101448E-01
  2.489861103369E-01  2.549976309849E-01  2.611542937874E-01  2.674596030566E-01
  2.739171477128E-01  2.805306033271E-01  2.873037342139E-01  2.942403955727E-01
  3.013445356834E-01  3.086201981530E-01  3.160715242172E-01  3.237027550979E-01
  3.315182344170E-01  3.395224106687E-01  3.477198397519E-01  3.561151875629E-01
  3.647132326514E-01  3.735188689406E-01  3.825371085123E-01  3.917730844602E-01
  4.012320538114E-01  4.109194005186E-01  4.208406385247E-01  4.258907261870E-01
  4.310014149013E-01  4.361734318801E-01  4.414075130626E-01  4.467044032194E-01
  4.520648560580E-01  4.574896343307E-01  4.629795099427E-01  4.685352640620E-01
  4.741576872307E-01  4.798475794775E-01  4.856057504312E-01  4.914330194364E-01
  4.973302156697E-01  5.032981782577E-01  5.093377563968E-01  5.154498094735E-01
  5.216352071872E-01  5.278948296735E-01  5.342295676296E-01  5.406403224411E-01
  5.471280063104E-01  5.536935423861E-01  5.603378648948E-01  5.670619192735E-01
  5.738666623048E-01  5.807530622524E-01  5.877220989995E-01  5.947747641875E-01
  6.019120613577E-01  6.091350060940E-01  6.164446261671E-01  6.238419616811E-01
  6.313280652213E-01  6.389040020040E-01  6.465708500280E-01  6.543297002283E-01
  6.621816566311E-01  6.701278365107E-01  6.781693705488E-01  6.863074029954E-01
  6.945430918313E-01  7.028776089333E-01  7.113121402405E-01  7.198478859234E-01
  7.284860605545E-01  7.372278932811E-01  7.460746280005E-01  7.550275235365E-01
  7.640878538189E-01  7.732569080648E-01  7.825359909615E-01  7.919264228531E-01
  8.014295399273E-01  8.110466944064E-01  8.207792547393E-01  8.306286057962E-01
  8.405961490657E-01  8.506833028545E-01  8.608915024888E-01  8.712222005187E-01
  8.816768669249E-01  8.922569893280E-01  9.029640731999E-01  9.137996420783E-01
  9.247652377832E-01  9.358624206366E-01  9.470927696843E-01  9.584578829205E-01
  9.699593775155E-01  9.815988900457E-01  9.933780767263E-01  1.005298613647E+00
  1.017362197011E+00  1.029570543375E+00  1.041925389895E+00  1.054428494574E+00
  1.067081636509E+00  1.079886616147E+00  1.092845255541E+00  1.105959398607E+00
  1.119230911391E+00  1.132661682327E+00  1.146253622515E+00  1.160008665985E+00
  1.173928769977E+00  1.188015915217E+00  1.202272106200E+00  1.216699371474E+00
  1.231299763932E+00  1.246075361099E+00  1.261028265432E+00  1.276160604617E+00
  1.291474531873E+00  1.306972226255E+00  1.322655892970E+00  1.338527763686E+00
  1.354590096850E+00  1.370845178012E+00  1.387295320148E+00  1.403942863990E+00
  1.420790178358E+00  1.437839660498E+00  1.455093736424E+00  1.472554861261E+00
  1.490225519597E+00  1.508108225832E+00  1.526205524542E+00  1.544519990836E+00
  1.563054230726E+00  1.581810881495E+00  1.600792612073E+00  1.620002123418E+00
  1.639442148899E+00  1.659115454686E+00  1.679024840142E+00  1.699173138224E+00
  1.719563215882E+00  1.740197974473E+00  1.761080350166E+00  1.782213314368E+00
  1.803599874141E+00  1.825243072631E+00  1.847145989502E+00  1.869311741376E+00
  1.891743482273E+00  1.914444404060E+00  1.937417736909E+00  1.960666749752E+00
  1.984194750749E+00  2.008005087758E+00  2.032101148811E+00  2.056486362596E+00
  2.081164198948E+00  2.106138169335E+00  2.131411827367E+00  2.156988769295E+00
  2.182872634527E+00  2.209067106141E+00  2.235575911415E+00  2.262402822352E+00
  2.289551656220E+00  2.317026276095E+00  2.344830591408E+00  2.372968558505E+00
  2.401444181207E+00  2.430261511381E+00  2.459424649518E+00  2.488937745312E+00
  2.518804998256E+00  2.549030658235E+00  2.579619026134E+00  2.610574454447E+00
  2.641901347901E+00  2.673604164076E+00  2.705687414044E+00  2.738155663013E+00
  2.771013530969E+00  2.804265693341E+00  2.837916881661E+00  2.871971884241E+00
  2.906435546852E+00  2.941312773414E+00  2.976608526695E+00  3.012327829015E+00
  3.048475762963E+00  3.085057472119E+00  3.122078161784E+00  3.159543099726E+00
  3.197457616923E+00  3.235827108326E+00  3.274657033625E+00  3.313952918029E+00
  3.353720353045E+00  3.393964997282E+00  3.434692577249E+00  3.475908888176E+00
  3.517619794834E+00  3.559831232372E+00  3.602549207161E+00  3.645779797647E+00
  3.689529155219E+00  3.733803505081E+00  3.778609147142E+00  3.823952456908E+00
  3.869839886391E+00  3.916277965027E+00  3.963273300608E+00  4.010832580215E+00
  4.058962571178E+00  4.107670122032E+00  4.156962163496E+00  4.206845709458E+00
  4.257327857972E+00  4.308415792267E+00  4.360116781774E+00  4.412438183156E+00
  4.465387441354E+00  4.518972090650E+00  4.573199755738E+00  4.628078152807E+00
  4.683615090640E+00  4.739818471728E+00  4.796696293389E+00  4.854256648909E+00
  4.912507728696E+00  4.971457821441E+00  5.031115315298E+00  5.091488699081E+00
  5.152586563470E+00  5.214417602232E+00  5.276990613459E+00  5.340314500820E+00
  5.404398274830E+00  5.469251054128E+00  5.534882066778E+00  5.601300651579E+00
  5.668516259398E+00  5.736538454511E+00  5.805376915965E+00  5.875041438956E+00
  5.945541936224E+00  6.016888439459E+00  6.089091100732E+00  6.162160193941E+00
  6.236106116268E+00  6.310939389663E+00  6.386670662339E+00  6.463310710287E+00
  6.540870438811E+00  6.619360884077E+00  6.698793214686E+00  6.779178733262E+00
  6.860528878061E+00  6.942855224598E+00  7.026169487293E+00  7.110483521140E+00
  7.195809323394E+00  7.282159035275E+00  7.369544943698E+00  7.457979483022E+00
  7.547475236819E+00  7.638044939660E+00  7.729701478936E+00  7.822457896684E+00
  7.916327391444E+00  8.011323320141E+00  8.107459199983E+00  8.204748710383E+00
  8.303205694907E+00  8.402844163246E+00  8.503678293205E+00  8.605722432724E+00
  8.708991101916E+00  8.813498995139E+00  8.919260983081E+00  9.026292114878E+00
  9.134607620256E+00  9.244222911700E+00  9.355153586640E+00  9.467415429680E+00
  9.581024414836E+00  9.695996707814E+00  9.812348668308E+00  9.930096852327E+00
  1.004925801456E+01  1.016984911073E+01  1.029188730006E+01  1.041538994766E+01
  1.054037462703E+01  1.066685912256E+01  1.079486143203E+01  1.092439976921E+01
  1.105549256644E+01  1.118815847724E+01  1.132241637897E+01  1.145828537551E+01
  1.159578480002E+01  1.173493421762E+01  1.187575342823E+01  1.201826246937E+01
  1.216248161900E+01  1.230843139843E+01  1.245613257521E+01  1.260560616611E+01
  1.275687344011E+01  1.290995592139E+01  1.306487539244E+01  1.322165389715E+01
  1.338031374392E+01  1.354087750885E+01  1.370336803895E+01  1.386780845542E+01
  1.403422215689E+01  1.420263282277E+01  1.437306441664E+01  1.454554118964E+01
  1.472008768392E+01  1.489672873612E+01  1.507548948096E+01  1.525639535473E+01
  1.543947209899E+01  1.562474576417E+01  1.581224271334E+01  1.600198962590E+01
  1.619401350141E+01  1.638834166343E+01  1.658500176339E+01  1.678402178455E+01
  1.698543004597E+01  1.718925520652E+01  1.739552626900E+01  1.760427258423E+01
  1.781552385524E+01  1.802931014150E+01  1.824566186320E+01  1.846460980556E+01
  1.868618512322E+01  1.891041934470E+01  1.913734437684E+01  1.936699250936E+01
  1.959939641947E+01  1.983458917651E+01  2.007260424662E+01  2.031347549758E+01
  2.055723720355E+01  2.080392405000E+01  2.105357113860E+01  2.130621399226E+01
  2.156188856017E+01  2.182063122289E+01  2.208247879756E+01  2.234746854313E+01
  2.261563816565E+01  2.288702582364E+01  2.316167013352E+01  2.343961017513E+01
  2.372088549723E+01  2.400553612319E+01  2.429360255667E+01  2.458512578735E+01
  2.488014729680E+01  2.517870906436E+01  2.548085357313E+01  2.578662381601E+01
  2.609606330180E+01  2.640921606143E+01  2.672612665416E+01  2.704684017401E+01
  2.737140225610E+01  2.769985908317E+01  2.803225739217E+01  2.836864448088E+01
  2.870906821465E+01  2.905357703323E+01  2.940221995762E+01  2.975504659712E+01
  3.011210715628E+01  3.047345244216E+01  3.083913387146E+01  3.120920347792E+01
  3.158371391965E+01  3.196271848669E+01  3.234627110853E+01  3.273442636183E+01
  3.312723947817E+01  3.352476635191E+01  3.392706354814E+01  3.433418831071E+01
  3.474619857044E+01  3.516315295329E+01  3.558511078873E+01  3.601213211819E+01
  3.644427770361E+01  3.688160903605E+01  3.732418834449E+01  3.777207860462E+01
  3.822534354788E+01  3.868404767045E+01  3.914825624250E+01  3.961803531741E+01
  4.009345174121E+01  4.057457316211E+01  4.106146804005E+01  4.155420565653E+01
  4.205285612441E+01  4.255749039791E+01  4.306818028268E+01  4.358499844607E+01
  4.410801842743E+01
</grid-data>
</grid>
<valence-charge total-charge="20" is-unscreening-charge="yes"
 rescaled-to-z-pseudo="no">
<radfunc>
<data npts="457">
  6.988800961897E+00  6.990666664643E+00  6.996243824401E+00  7.005548351786E+00
  7.018484655474E+00  7.035494212145E+00  7.057172162317E+00  7.081994575061E+00
  7.112821615762E+00  7.146148914253E+00  7.183711612590E+00  7.224536113405E+00
  7.273869685468E+00  7.325387204181E+00  7.376845155962E+00  7.436108755904E+00
  7.504341401095E+00  7.569007169480E+00  7.641689685368E+00  7.723356800001E+00
  7.815085935622E+00  7.896514183348E+00  7.985818538599E+00  8.083728615187E+00
  8.191034462973E+00  8.308589907547E+00  8.437315639856E+00  8.541783456302E+00
  8.653534240189E+00  8.773035154495E+00  8.900776533724E+00  9.037271798312E+00
  9.183057081460E+00  9.338690504499E+00  9.504751026270E+00  9.681836779863E+00
  9.870562796480E+00  1.007155800090E+01  1.021268627858E+01  1.035974222448E+01
  1.051291693570E+01  1.067240089854E+01  1.083838297963E+01  1.101104927753E+01
  1.119058182115E+01  1.137715710013E+01  1.157094441179E+01  1.177210400805E+01
  1.198078502511E+01  1.219712317804E+01  1.242123820153E+01  1.265323101817E+01
  1.289318061499E+01  1.314114060946E+01  1.339713548657E+01  1.366115648970E+01
  1.393315714932E+01  1.421304843630E+01  1.450069352919E+01  1.479590218929E+01
  1.509842474237E+01  1.540794567256E+01  1.572407684180E+01  1.604635035849E+01
  1.637421113029E+01  1.670700915037E+01  1.704399158273E+01  1.721378659927E+01
  1.738429473120E+01  1.755538937502E+01  1.772693599886E+01  1.789879190015E+01
  1.807080596911E+01  1.824281845944E+01  1.841466076794E+01  1.858615522494E+01
  1.875711489744E+01  1.892734340698E+01  1.909663476471E+01  1.926477322585E+01
  1.943153316619E+01  1.959667898339E+01  1.975996502581E+01  1.992113555208E+01
  2.007992472439E+01  2.023605663890E+01  2.038924539676E+01  2.053919521917E+01
  2.068560061022E+01  2.082814657137E+01  2.096650887110E+01  2.110035437402E+01
  2.122934143291E+01  2.135312034787E+01  2.147133389624E+01  2.158361793707E+01
  2.168960209368E+01  2.178891051775E+01  2.188116273800E+01  2.196597459637E+01
  2.204295927401E+01  2.211172840917E+01  2.217189330839E+01  2.222306625180E+01
  2.226486189275E+01  2.229689875096E+01  2.231880079791E+01  2.233019913174E+01
  2.233073373836E+01  2.232005533393E+01  2.229782728296E+01  2.226372758492E+01
  2.221745092066E+01  2.215871074907E+01  2.208724144241E+01  2.200280044765E+01
  2.190517045959E+01  2.179416159014E+01  2.166961351674E+01  2.153139759148E+01
  2.137941889162E+01  2.121361819074E+01  2.103397382913E+01  2.084050346127E+01
  2.063326565779E+01  2.041236133916E+01  2.017793501842E+01  1.993017583073E+01
  1.966931832840E+01  1.939564302104E+01  1.910947664219E+01  1.881119212561E+01
  1.850120827662E+01  1.817998912668E+01  1.784804296227E+01  1.750592102240E+01
  1.715421586249E+01  1.679355938633E+01  1.642462055134E+01  1.604810275637E+01
  1.566474092512E+01  1.527529830206E+01  1.488056298111E+01  1.448134419075E+01
  1.407846836234E+01  1.367277501060E+01  1.326511245770E+01  1.285633343398E+01
  1.244729058915E+01  1.203883194918E+01  1.163179635351E+01  1.122700890781E+01
  1.082527648643E+01  1.042738331838E+01  1.003408668945E+01  9.646112792135E+00
  9.264152754353E+00  8.888858876557E+00  8.520841106466E+00  8.160663779838E+00
  7.808842655304E+00  7.465842270901E+00  7.132073649584E+00  6.807892380574E+00
  6.493597102653E+00  6.189428414465E+00  5.895568235143E+00  5.612139636255E+00
  5.339207162752E+00  5.076777656511E+00  4.824801590971E+00  4.583175985349E+00
  4.351752237314E+00  4.130346929231E+00  3.918746744372E+00  3.716710726989E+00
  3.523974439392E+00  3.340253421995E+00  3.165246709584E+00  2.998640966528E+00
  2.840117122816E+00  2.689357949724E+00  2.546049335074E+00  2.409881527507E+00
  2.280550126611E+00  2.157756964601E+00  2.041210849684E+00  1.930628187258E+00
  1.825733488269E+00  1.726259772835E+00  1.631948878561E+00  1.542551682111E+00
  1.457828242459E+00  1.377547873850E+00  1.301489156184E+00  1.229439890124E+00
  1.161197003794E+00  1.096566417540E+00  1.035362872756E+00  9.774097303530E-01
  9.225387440225E-01  8.705898129830E-01  8.214107185183E-01  7.748568481802E-01
  7.307909111509E-01  6.890826478860E-01  6.496085368002E-01  6.122515004324E-01
  5.769006132062E-01  5.434508126168E-01  5.118026154027E-01  4.818618400142E-01
  4.535393364622E-01  4.267507244259E-01  4.014161403112E-01  3.774599937827E-01
  3.548107341436E-01  3.334006268069E-01  3.131655399824E-01  2.940447416041E-01
  2.759807064368E-01  2.589189332228E-01  2.428077716712E-01  2.275982590366E-01
  2.132439659956E-01  1.997008514931E-01  1.869271262075E-01  1.748831242645E-01
  1.635311828174E-01  1.528355291053E-01  1.427621745984E-01  1.332788158439E-01
  1.243547416279E-01  1.159607460830E-01  1.080690473763E-01  1.006532116323E-01
  9.368808175449E-02  8.714971082869E-02  8.101529980599E-02  7.526313917689E-02
  6.987255439254E-02  6.482385473383E-02  6.009828544129E-02  5.567798286237E-02
  5.154593241456E-02  4.768592917107E-02  4.408254088747E-02  4.072107329732E-02
  3.758753751420E-02  3.466861938466E-02  3.195165064374E-02  2.942458173048E-02
  2.707595612632E-02  2.489488608479E-02  2.287102962615E-02  2.099456867651E-02
  1.925618823720E-02  1.764705647702E-02  1.615880564772E-02  1.478351373133E-02
  1.351368673676E-02  1.234224157267E-02  1.126248943292E-02  1.026811964112E-02
  9.353183909745E-03  8.512080979131E-03  7.739541609885E-03  7.030613910426E-03
  6.380648988440E-03  5.785286921207E-03  5.240443044979E-03  4.742294567761E-03
  4.287267513086E-03  3.872024004608E-03  3.493449902764E-03  3.148642805337E-03
  2.834900423673E-03  2.549709345600E-03  2.290734194923E-03  2.055807195805E-03
  1.842918148457E-03  1.650204820494E-03  1.475943756148E-03  1.318541503268E-03
  1.176526255846E-03  1.048539907708E-03  9.333305109769E-04  8.297451311574E-04
  7.367230890306E-04  6.532895781954E-04  5.785496459334E-04  5.116825241613E-04
  4.519362965709E-04  3.986228876104E-04  3.511133587250E-04  3.088334972311E-04
  2.712596833158E-04  2.379150209153E-04  2.083657185923E-04  1.822177069955E-04
  1.591134799958E-04  1.387291471566E-04  1.207716857696E-04  1.049763812671E-04
  9.110444539150E-05  7.894080205247E-05  6.829203132252E-05  5.898446251444E-05
  5.086240774020E-05  4.378652777609E-05  3.763232245068E-05  3.228873813586E-05
  2.765688525744E-05  2.364885905615E-05  2.018665712432E-05  1.720118752253E-05
  1.463136154637E-05  1.242326547006E-05  1.052940584204E-05  8.908023150577E-06
  7.522468916176E-06  6.340641502845E-06  5.334476172706E-06  4.479485138657E-06
  3.754343597200E-06  3.140517948299E-06  2.621932630559E-06  2.184672217621E-06
  1.816715634821E-06  1.507699563155E-06  1.248708299761E-06  1.032087539875E-06
  8.512797338785E-07  7.006788541653E-07  5.755025796969E-07  4.716800708433E-07
  3.857536632913E-07  3.147929571717E-07  2.563199160963E-07  2.082437204794E-07
  1.688042404461E-07  1.365231059369E-07  1.101614555351E-07  8.868354131614E-08
  7.122545497135E-08  5.706832092358E-08  4.561537550994E-08  3.637241793928E-08
  2.893117904870E-08  2.295520829072E-08  1.816792829174E-08  1.434255013958E-08
  1.129358168093E-08  8.869695924520E-09  6.947757524776E-09  5.427832617830E-09
  4.229031333592E-09  3.286053430895E-09  2.546325993318E-09  1.967638257059E-09
  1.516192673769E-09  1.165003474948E-09  8.925845149641E-10  6.818772220349E-10
  5.193772578570E-10  3.944251362895E-10  2.986317231247E-10  2.254143604274E-10
  1.696234442308E-10  1.272427345127E-10  9.514958042399E-11  7.092368001650E-11
  5.269503071187E-11  3.902342414548E-11  2.880324851348E-11  2.118256091525E-11
  1.553006031651E-11  1.134685313830E-11  8.230121627097E-12  5.972455537946E-12
  4.318670156970E-12  3.111567431127E-12  2.233684682859E-12  1.597567219940E-12
  1.138339900198E-12  8.080551356904E-13  5.714084778135E-13  4.025030692659E-13
  2.824154680141E-13  1.973713954605E-13  1.373838939805E-13  9.524067885619E-14
  6.575414076413E-14  4.520810972052E-14  3.095142114287E-14  2.110055932154E-14
  1.432301080137E-14  9.680086332776E-15  6.513373849827E-15  4.363064903120E-15
  2.909463937962E-15  1.931285074438E-15  1.276051097656E-15  8.391776480621E-16
  5.492619351511E-16  3.577833659969E-16  2.319267442536E-16  1.496050495111E-16
  9.602422099782E-17  6.132372497361E-17  3.896397146883E-17  2.462965360377E-17
  1.548769939074E-17  9.687725695602E-18  6.027476698575E-18  3.729925570289E-18
  2.295553972230E-18  1.404976386474E-18  8.550978780150E-19  5.174860919993E-19
  3.113780502002E-19  1.862746764702E-19  1.107811421902E-19  6.549277248987E-20
  3.848623009599E-20  2.247865833568E-20  1.304837958830E-20  7.527169760978E-21
  4.314823988391E-21  2.457635534870E-21  1.390790355498E-21  0.000000000000E+00
  0.000000000000E+00  0.000000000000E+00  0.000000000000E+00  0.000000000000E+00
  0.000000000000E+00  0.000000000000E+00  0.000000000000E+00  0.000000000000E+00
  0.000000000000E+00  0.000000000000E+00  0.000000000000E+00  0.000000000000E+00
  0.000000000000E+00  0.000000000000E+00  0.000000000000E+00  0.000000000000E+00
  0.000000000000E+00  0.000000000000E+00  0.000000000000E+00  0.000000000000E+00
  0.000000000000E+00  0.000000000000E+00  0.000000000000E+00  0.000000000000E+00
  0.000000000000E+00
</data>
</radfunc>
</valence-charge>
<pseudocore-charge matching-radius="0.764087853819"
 number-of-continuous-derivatives="4">
<annotation model-charge-form="Teter function with specified parameters" />
<radfunc>
<data npts="290">
  1.157893878591E+02  1.157809187875E+02  1.157556023250E+02  1.157133672337E+02
  1.156546490077E+02  1.155774460844E+02  1.154790606443E+02  1.153664127186E+02
  1.152265275574E+02  1.150753124093E+02  1.149048990399E+02  1.147197098769E+02
  1.144959517464E+02  1.142623221538E+02  1.140289962623E+02  1.137603171970E+02
  1.134510265324E+02  1.131579517368E+02  1.128285961137E+02  1.124585892501E+02
  1.120430667663E+02  1.116742645643E+02  1.112698472145E+02  1.108265196176E+02
  1.103407120741E+02  1.098085638845E+02  1.092259074665E+02  1.087530809727E+02
  1.082473080609E+02  1.077064627387E+02  1.071283079209E+02  1.065104938144E+02
  1.058505570779E+02  1.051459209215E+02  1.043938963356E+02  1.035916846623E+02
  1.027363817518E+02  1.018249839705E+02  1.011846967138E+02  1.005171670682E+02
  9.982144328308E+01  9.909656129757E+01  9.834154701237E+01  9.755541888122E+01
  9.673719084923E+01  9.588587566459E+01  9.500048859152E+01  9.408005155266E+01
  9.312359772964E+01  9.213017665050E+01  9.109885979248E+01  9.002874672785E+01
  8.891897183931E+01  8.776871162973E+01  8.657719264841E+01  8.534370005292E+01
  8.406758682140E+01  8.274828362483E+01  8.138530936290E+01  7.997828235912E+01
  7.852693220209E+01  7.703111220938E+01  7.549081247799E+01  7.390617347190E+01
  7.227750008078E+01  7.060527606663E+01  6.889017879455E+01  6.801682096507E+01
  6.713309412244E+01  6.623914402077E+01  6.533513129976E+01  6.442123193812E+01
  6.349763769958E+01  6.256455656949E+01  6.162221318007E+01  6.067084922229E+01
  5.971072384182E+01  5.874211401709E+01  5.776531491655E+01  5.678064023281E+01
  5.578842249073E+01  5.478901332667E+01  5.378278373583E+01  5.277012428466E+01
  5.175144528508E+01  5.072717692716E+01  4.969776936691E+01  4.866369276569E+01
  4.762543727753E+01  4.658351298101E+01  4.553844975175E+01  4.449079707197E+01
  4.344112377340E+01  4.239001770988E+01  4.133808535584E+01  4.028595132738E+01
  3.923425782211E+01  3.818366397468E+01  3.713484512457E+01  3.608849199329E+01
  3.504530976805E+01  3.400601708950E+01  3.297134494126E+01  3.194203543946E+01
  3.091884052074E+01  2.990252052784E+01  2.889384269223E+01  2.789357951386E+01
  2.690250703873E+01  2.592140303558E+01  2.495104507383E+01  2.399220850550E+01
  2.304566435485E+01  2.211217712017E+01  2.119250249322E+01  2.028738500261E+01
  1.939755558861E+01  1.852372911777E+01  1.766660184672E+01  1.682684884589E+01
  1.600512139461E+01  1.520204436050E+01  1.441821357679E+01  1.365419323255E+01
  1.291051329174E+01  1.218766695792E+01  1.148610820239E+01  1.080624937440E+01
  1.014845891283E+01  9.513059179118E+00  8.900324432031E+00  8.310478964861E+00
  7.743695425975E+00  7.200093343462E+00  6.679737874357E+00  6.182638798430E+00
  5.708749775690E+00  5.257967885741E+00  4.830133465767E+00  4.425030262294E+00
  4.042385909943E+00  3.681872748111E+00  3.343108983995E+00  3.025660207502E+00
  2.729041260404E+00  2.452718458735E+00  2.196112163675E+00  1.958599692324E+00
  1.739518555652E+00  1.538170006705E+00  1.353822877836E+00  1.185717681391E+00
  1.033070944013E+00  8.950797405191E-01  7.709263893583E-01  6.597832679322E-01
  5.608177027467E-01  4.731968864692E-01  3.960927716424E-01  3.286868891043E-01
  2.701750381774E-01  2.197717955019E-01  1.767147900507E-01  1.402686934434E-01
  1.097288772041E-01  8.442469210496E-02  6.372232920905E-02  4.702722763535E-02
  3.378600038387E-02  2.348785668734E-02  1.566550720605E-02  9.895546816701E-03
  5.798318609399E-03  3.037271814647E-03  1.317835530920E-03  3.858390886937E-04
  2.551843406599E-05  5.715580159402E-05  3.344069308237E-04  7.413759321609E-04
  1.189502411387E-03  1.614328431786E-03  1.972214178673E-03  2.237070688881E-03
  2.397175666770E-03  2.452134238414E-03  2.410040571756E-03  2.284888755753E-03
  2.094272396431E-03  1.857402327777E-03  1.593460983430E-03  1.320300712414E-03
  1.053482063904E-03  8.056372457669E-04  5.861340113739E-04  4.010065592312E-04
  2.531130067209E-04  1.424739240214E-04  6.674350375957E-05  2.176431134909E-05
  2.158212080221E-06  1.909885766529E-06  1.490508068785E-05  3.539307694981E-05
  5.835128104504E-05  7.973894222893E-05  9.663610936883E-05  1.072725696897E-04
  1.109590955234E-04  1.079394092487E-04  9.918550368159E-05  8.616110487343E-05
  7.057807323287E-05  5.416851000424E-05  3.849153444890E-05  2.478853116313E-05
  1.389465659380E-05  6.208125527937E-06  1.712872455937E-06  4.515629816172E-08
  5.910083465618E-07  2.599424041825E-06  5.295999809819E-06  7.983249589376E-06
  1.011684269376E-05  1.135106167309E-05  1.155134646304E-05  1.077627878857E-05
  9.235200633500E-06  7.230380915885E-06  5.093933387752E-06  3.129437855882E-06
  1.566537937857E-06  5.339988935930E-07  5.328497260700E-08  0.000000000000E+00
  0.000000000000E+00  0.000000000000E+00  0.000000000000E+00  0.000000000000E+00
  0.000000000000E+00  0.000000000000E+00  0.000000000000E+00  0.000000000000E+00
  0.000000000000E+00  0.000000000000E+00  0.000000000000E+00  0.000000000000E+00
  0.000000000000E+00  0.000000000000E+00  0.000000000000E+00  0.000000000000E+00
  0.000000000000E+00  0.000000000000E+00  0.000000000000E+00  0.000000000000E+00
  0.000000000000E+00  0.000000000000E+00  0.000000000000E+00  0.000000000000E+00
  0.000000000000E+00  0.000000000000E+00  0.000000000000E+00  0.000000000000E+00
  0.000000000000E+00  0.000000000000E+00  0.000000000000E+00  0.000000000000E+00
  0.000000000000E+00  0.000000000000E+00  0.000000000000E+00  0.000000000000E+00
  0.000000000000E+00  0.000000000000E+00  0.000000000000E+00  0.000000000000E+00
  0.000000000000E+00  0.000000000000E+00  0.000000000000E+00  0.000000000000E+00
  0.000000000000E+00  0.000000000000E+00  0.000000000000E+00  0.000000000000E+00
  0.000000000000E+00  0.000000000000E+00  0.000000000000E+00  0.000000000000E+00
  0.000000000000E+00  0.000000000000E+00
</data>
</radfunc>
</pseudocore-charge>
<semilocal-potentials set="lj">
<slps n="5" l="s" j="0.5" rc="1.60079261207" eref="-4.33451194906">
<radfunc>
<data npts="290">
 -1.962914511494E+01 -1.962958407176E+01 -1.963089604928E+01 -1.963308425907E+01
 -1.963612534140E+01 -1.964012178057E+01 -1.964521147092E+01 -1.965103448998E+01
 -1.965825877312E+01 -1.966605985031E+01 -1.967484096733E+01 -1.968437097899E+01
 -1.969586844368E+01 -1.970785287799E+01 -1.971980106830E+01 -1.973353403632E+01
 -1.974930884453E+01 -1.976422305888E+01 -1.978094459698E+01 -1.979968080282E+01
 -1.982065967746E+01 -1.983922463875E+01 -1.985952279266E+01 -1.988170216894E+01
 -1.990592054885E+01 -1.993234546818E+01 -1.996115404434E+01 -1.998443649661E+01
 -2.000924615954E+01 -2.003566729120E+01 -2.006378632779E+01 -2.009369150612E+01
 -2.012547239388E+01 -2.015921931475E+01 -2.019502265419E+01 -2.023297203076E+01
 -2.027315531638E+01 -2.031565748800E+01 -2.034532063309E+01 -2.037607296947E+01
 -2.040793570333E+01 -2.044092842885E+01 -2.047506885737E+01 -2.051037252308E+01
 -2.054685246401E+01 -2.058451887713E+01 -2.062337874654E+01 -2.066343544354E+01
 -2.070468829772E+01 -2.074713213803E+01 -2.079075680326E+01 -2.083554662102E+01
 -2.088147985502E+01 -2.092852812010E+01 -2.097665576516E+01 -2.102581922404E+01
 -2.107596633483E+01 -2.112703562846E+01 -2.117895558758E+01 -2.123164387728E+01
 -2.128500654961E+01 -2.133893722418E+01 -2.139331624779E+01 -2.144800983643E+01
 -2.150286920359E+01 -2.155772967952E+01 -2.161240982661E+01 -2.163962077526E+01
 -2.166671055674E+01 -2.169365138374E+01 -2.172041425735E+01 -2.174696894080E+01
 -2.177328393354E+01 -2.179932644591E+01 -2.182506237443E+01 -2.185045627766E+01
 -2.187547135293E+01 -2.190006941387E+01 -2.192421086884E+01 -2.194785470045E+01
 -2.197095844618E+01 -2.199347818024E+01 -2.201536849679E+01 -2.203658249454E+01
 -2.205707176304E+01 -2.207678637054E+01 -2.209567485374E+01 -2.211368420944E+01
 -2.213075988832E+01 -2.214684579083E+01 -2.216188426558E+01 -2.217581611008E+01
 -2.218858057428E+01 -2.220011536679E+01 -2.221035666416E+01 -2.221923912324E+01
 -2.222669589685E+01 -2.223265865295E+01 -2.223705759738E+01 -2.223982150049E+01
 -2.224087772772E+01 -2.224015227439E+01 -2.223756980483E+01 -2.223305369607E+01
 -2.222652608628E+01 -2.221790792809E+01 -2.220711904707E+01 -2.219407820553E+01
 -2.217870317172E+01 -2.216091079484E+01 -2.214061708585E+01 -2.211773730437E+01
 -2.209218605189E+01 -2.206387737137E+01 -2.203272485363E+01 -2.199864175048E+01
 -2.196154109508E+01 -2.192133582955E+01 -2.187793894014E+01 -2.183126360031E+01
 -2.178122332182E+01 -2.172773211426E+01 -2.167070465337E+01 -2.161005645843E+01
 -2.154570407924E+01 -2.147756529305E+01 -2.140555931209E+01 -2.132960700217E+01
 -2.124963111314E+01 -2.116555652175E+01 -2.107731048797E+01 -2.098482292545E+01
 -2.088802668730E+01 -2.078685786811E+01 -2.068125612352E+01 -2.057116500862E+01
 -2.045653233642E+01 -2.033731055804E+01 -2.021345716618E+01 -2.008493512341E+01
 -1.995171331734E+01 -1.981376704439E+01 -1.967107852449E+01 -1.952363744893E+01
 -1.937144156393E+01 -1.921449729312E+01 -1.905282040225E+01 -1.888643671024E+01
 -1.871538285182E+01 -1.853970709770E+01 -1.835947024025E+01 -1.817474655410E+01