<?xml version="1.0" encoding="UTF-8" ?>
<psml version="1.1" energy_unit="hartree" length_unit="bohr"
 uuid="a0b74c00-53a0-11e8-6ef7-39053f7389ae"
 xmlns="http://esl.cecam.org/PSML/ns/1.1">
<provenance creator="ONCVPSP-3.3.0+psml-3.3.0-73 (fully-relativistic)"
 date="2018-05-09">
<annotation action="semilocal-pseudopotential-generation"
 action-cont="projectors-generation" />
<input-file name="oncvpsp-input">
<![CDATA[# atsym z nc nv iexc psfile
V 23 3 4 -116133 upf
# n l f
1 0 2.0
2 0 2.0
2 1 6.0
3 0 2.0
3 1 6.0
3 2 3.0
4 0 2.0
# lmax
2
# l rc ep ncon nbas qcut
0 1.3 0.0 4 8 9.0
1 1.3 0.0 4 7 9.0
2 1.65 0.0 4 8 9.0
# lloc lpopt rc5 dvloc0
4 5 1.2 0.0
# l nproj debl
0 2 1.0
1 2 1.5
2 2 1.5
# icmod fcfact
3 5 1.3
# epsh1 epsh2 depsh
-12.0 12.0 0.02
# rlmax drl
6.0 0.01
 0
]]>
</input-file>
</provenance>
<pseudo-atom-spec atomic-label="V" atomic-number="23" z-pseudo="13"
 flavor="Hamann&apos;s oncvpsp" relativity="dirac" spin-dft="no"
 core-corrections="yes">
<annotation pseudo-energy="-71.1075105742" />
<exchange-correlation>
<annotation oncvpsp-xc-code="-116133" oncvpsp-xc-type="libxc-interface" />
<libxc-info number-of-functionals="2">
<functional name="Perdew, Burke &amp; Ernzerhof SOL (GGA)" type="exchange"
 id="116" />
<functional name="Perdew, Burke &amp; Ernzerhof SOL (GGA)" type="correlation"
 id="133" />
</libxc-info>
</exchange-correlation>
<valence-configuration total-valence-charge="13">
<shell n="3" l="s" occupation="2" />
<shell n="3" l="p" occupation="6" />
<shell n="3" l="d" occupation="3" />
<shell n="4" l="s" occupation="2" />
</valence-configuration>
</pseudo-atom-spec>
<grid npts="458">
<annotation type="sampled from oncvpsp log grid"
 recipe="r(i:1..N) = r1*exp(a*(i-1)) + r=0; resampled"
 recipe-cont="r1: scale; a: step" scale="0.217391304348E-04"
 step="0.119285708653E-01" delta="0.500000000000E-02" rmax="44.3717337047" />
<grid-data>
  0.000000000000E+00  5.006749579795E-03  1.012059644248E-02  1.518250849851E-02
  2.021509715797E-02  2.535744957628E-02  3.068977967623E-02  3.583772504718E-02
  4.086260699098E-02  4.603956332018E-02  5.125730973400E-02  5.638971612822E-02
  6.203603157331E-02  6.743845247288E-02  7.244203985812E-02  7.781686777164E-02
  8.359048035711E-02  8.872773260121E-02  9.418070692882E-02  9.996880679323E-02
  1.061126281332E-01  1.112984512452E-01  1.167377103696E-01  1.224427911608E-01
  1.284266845717E-01  1.347030164349E-01  1.412860784904E-01  1.464336570443E-01
  1.517687810751E-01  1.572982835637E-01  1.630292464419E-01  1.689690096628E-01
  1.751251806013E-01  1.815056437973E-01  1.881185710538E-01  1.949724319034E-01
  2.020760044548E-01  2.094383866365E-01  2.144950670434E-01  2.196738359421E-01
  2.249776410371E-01  2.304095012023E-01  2.359725081993E-01  2.416698284373E-01
  2.475047047751E-01  2.534804583672E-01  2.596004905540E-01  2.658682847979E-01
  2.722874086661E-01  2.788615158609E-01  2.855943482999E-01  2.924897382452E-01
  2.995516104854E-01  3.067839845690E-01  3.141909770924E-01  3.217768040433E-01
  3.295457832001E-01  3.375023365897E-01  3.456509930043E-01  3.539963905794E-01
  3.625432794336E-01  3.712965243722E-01  3.802611076567E-01  3.894421318399E-01
  3.988448226711E-01  4.084745320697E-01  4.183367411719E-01  4.233567820660E-01
  4.284370634508E-01  4.335783082122E-01  4.387812479108E-01  4.440466228857E-01
  4.493751823603E-01  4.547676845486E-01  4.602248967632E-01  4.657475955244E-01
  4.713365666707E-01  4.769926054707E-01  4.827165167364E-01  4.885091149372E-01
  4.943712243165E-01  5.003036790082E-01  5.063073231563E-01  5.123830110342E-01
  5.185316071666E-01  5.247539864526E-01  5.310510342901E-01  5.374236467015E-01
  5.438727304620E-01  5.503992032275E-01  5.570039936662E-01  5.636880415902E-01
  5.704522980893E-01  5.772977256664E-01  5.842252983744E-01  5.912360019549E-01
  5.983308339783E-01  6.055108039861E-01  6.127769336339E-01  6.201302568375E-01
  6.275718199196E-01  6.351026817586E-01  6.427239139397E-01  6.504366009070E-01
  6.582418401179E-01  6.661407421993E-01  6.741344311057E-01  6.822240442789E-01
  6.904107328103E-01  6.986956616040E-01  7.070800095433E-01  7.155649696578E-01
  7.241517492937E-01  7.328415702852E-01  7.416356691286E-01  7.505352971582E-01
  7.595417207241E-01  7.686562213727E-01  7.778800960292E-01  7.872146571816E-01
  7.966612330677E-01  8.062211678646E-01  8.158958218789E-01  8.256865717415E-01
  8.355948106024E-01  8.456219483296E-01  8.557694117096E-01  8.660386446501E-01
  8.764311083859E-01  8.869482816865E-01  8.975916610667E-01  9.083627609995E-01
  9.192631141315E-01  9.302942715011E-01  9.414578027591E-01  9.527552963922E-01
  9.641883599490E-01  9.757586202683E-01  9.874677237116E-01  9.993173363961E-01
  1.011309144433E+00  1.023444854166E+00  1.035726192416E+00  1.048154906725E+00
  1.060732765606E+00  1.073461558793E+00  1.086343097499E+00  1.099379214668E+00
  1.112571765245E+00  1.125922626427E+00  1.139433697945E+00  1.153106902320E+00
  1.166944185148E+00  1.180947515370E+00  1.195118885554E+00  1.209460312181E+00
  1.223973835927E+00  1.238661521958E+00  1.253525460221E+00  1.268567765744E+00
  1.283790578933E+00  1.299196065880E+00  1.314786418671E+00  1.330563855695E+00
  1.346530621963E+00  1.362688989427E+00  1.379041257300E+00  1.395589752387E+00
  1.412336829416E+00  1.429284871369E+00  1.446436289825E+00  1.463793525303E+00
  1.481359047607E+00  1.499135356178E+00  1.517124980452E+00  1.535330480218E+00
  1.553754445980E+00  1.572399499332E+00  1.591268293324E+00  1.610363512844E+00
  1.629687874998E+00  1.649244129498E+00  1.669035059052E+00  1.689063479761E+00
  1.709332241518E+00  1.729844228416E+00  1.750602359157E+00  1.771609587467E+00
  1.792868902517E+00  1.814383329347E+00  1.836155929299E+00  1.858189800451E+00
  1.880488078056E+00  1.903053934993E+00  1.925890582213E+00  1.949001269199E+00
  1.972389284430E+00  1.996057955843E+00  2.020010651313E+00  2.044250779129E+00
  2.068781788478E+00  2.093607169940E+00  2.118730455979E+00  2.144155221451E+00
  2.169885084108E+00  2.195923705118E+00  2.222274789579E+00  2.248942087054E+00
  2.275929392099E+00  2.303240544804E+00  2.330879431341E+00  2.358849984518E+00
  2.387156184332E+00  2.415802058544E+00  2.444791683246E+00  2.474129183445E+00
  2.503818733647E+00  2.533864558450E+00  2.564270933152E+00  2.595042184350E+00
  2.626182690562E+00  2.657696882848E+00  2.689589245443E+00  2.721864316388E+00
  2.754526688185E+00  2.787581008443E+00  2.821031980544E+00  2.854884364311E+00
  2.889142976682E+00  2.923812692403E+00  2.958898444711E+00  2.994405226048E+00
  3.030338088761E+00  3.066702145826E+00  3.103502571576E+00  3.140744602434E+00
  3.178433537664E+00  3.216574740116E+00  3.255173636997E+00  3.294235720641E+00
  3.333766549289E+00  3.373771747880E+00  3.414257008855E+00  3.455228092961E+00
  3.496690830077E+00  3.538651120037E+00  3.581114933478E+00  3.624088312680E+00
  3.667577372432E+00  3.711588300901E+00  3.756127360512E+00  3.801200888838E+00
  3.846815299504E+00  3.892977083098E+00  3.939692808095E+00  3.986969121792E+00
  4.034812751254E+00  4.083230504269E+00  4.132229270320E+00  4.181816021564E+00
  4.231997813823E+00  4.282781787589E+00  4.334175169040E+00  4.386185271068E+00
  4.438819494321E+00  4.492085328253E+00  4.545990352192E+00  4.600542236418E+00
  4.655748743255E+00  4.711617728174E+00  4.768157140912E+00  4.825375026603E+00
  4.883279526922E+00  4.941878881246E+00  5.001181427821E+00  5.061195604954E+00
  5.121929952214E+00  5.183393111640E+00  5.245593828980E+00  5.308540954928E+00
  5.372243446387E+00  5.436710367744E+00  5.501950892157E+00  5.567974302862E+00
  5.634789994497E+00  5.702407474431E+00  5.770836364124E+00  5.840086400493E+00
  5.910167437299E+00  5.981089446547E+00  6.052862519905E+00  6.125496870144E+00
  6.199002832586E+00  6.273390866577E+00  6.348671556976E+00  6.424855615660E+00
  6.501953883048E+00  6.579977329644E+00  6.658937057600E+00  6.738844302291E+00
  6.819710433919E+00  6.901546959126E+00  6.984365522635E+00  7.068177908907E+00
  7.152996043814E+00  7.238831996339E+00  7.325697980295E+00  7.413606356059E+00
  7.502569632332E+00  7.592600467920E+00  7.683711673535E+00  7.775916213617E+00
  7.869227208181E+00  7.963657934679E+00  8.059221829895E+00  8.155932491854E+00
  8.253803681756E+00  8.352849325937E+00  8.453083517848E+00  8.554520520062E+00
  8.657174766303E+00  8.761060863499E+00  8.866193593861E+00  8.972587916987E+00
  9.080258971991E+00  9.189222079655E+00  9.299492744611E+00  9.411086657546E+00
  9.524019697437E+00  9.638307933806E+00  9.753967629011E+00  9.871015240560E+00
  9.989467423446E+00  1.010934103253E+01  1.023065312492E+01  1.035342096242E+01
  1.047766201397E+01  1.060339395813E+01  1.073063468563E+01  1.085940230186E+01
  1.098971512948E+01  1.112159171103E+01  1.125505081157E+01  1.139011142131E+01
  1.152679275836E+01  1.166511427146E+01  1.180509564272E+01  1.194675679043E+01
  1.209011787192E+01  1.223519928638E+01  1.238202167782E+01  1.253060593795E+01
  1.268097320921E+01  1.283314488772E+01  1.298714262637E+01  1.314298833789E+01
  1.330070419794E+01  1.346031264832E+01  1.362183640010E+01  1.378529843690E+01
  1.395072201814E+01  1.411813068236E+01  1.428754825055E+01  1.445899882955E+01
  1.463250681551E+01  1.480809689729E+01  1.498579406006E+01  1.516562358878E+01
  1.534761107185E+01  1.553178240471E+01  1.571816379356E+01  1.590678175909E+01
  1.609766314020E+01  1.629083509788E+01  1.648632511905E+01  1.668416102048E+01
  1.688437095273E+01  1.708698340416E+01  1.729202720501E+01  1.749953153147E+01
  1.770952590985E+01  1.792204022077E+01  1.813710470342E+01  1.835474995986E+01
  1.857500695938E+01  1.879790704289E+01  1.902348192740E+01  1.925176371053E+01
  1.948278487506E+01  1.971657829356E+01  1.995317723308E+01  2.019261535988E+01
  2.043492674420E+01  2.068014586513E+01  2.092830761551E+01  2.117944730689E+01
  2.143360067458E+01  2.169080388267E+01  2.195109352926E+01  2.221450665162E+01
  2.248108073143E+01  2.275085370021E+01  2.302386394461E+01  2.330015031195E+01
  2.357975211569E+01  2.386270914108E+01  2.414906165077E+01  2.443885039058E+01
  2.473211659527E+01  2.502890199441E+01  2.532924881835E+01  2.563319980417E+01
  2.594079820182E+01  2.625208778024E+01  2.656711283360E+01  2.688591818760E+01
  2.720854920586E+01  2.753505179633E+01  2.786547241788E+01  2.819985808690E+01
  2.853825638394E+01  2.888071546055E+01  2.922728404607E+01  2.957801145463E+01
  2.993294759208E+01  3.029214296319E+01  3.065564867875E+01  3.102351646289E+01
  3.139579866044E+01  3.177254824437E+01  3.215381882330E+01  3.253966464918E+01
  3.293014062497E+01  3.332530231247E+01  3.372520594022E+01  3.412990841150E+01
  3.453946731244E+01  3.495394092019E+01  3.537338821123E+01  3.579786886977E+01
  3.622744329621E+01  3.666217261576E+01  3.710211868715E+01  3.754734411140E+01
  3.799791224073E+01  3.845388718762E+01  3.891533383387E+01  3.938231783988E+01
  3.985490565396E+01  4.033316452181E+01  4.081716249607E+01  4.130696844602E+01
  4.180265206737E+01  4.230428389218E+01  4.281193529889E+01  4.332567852247E+01
  4.384558666474E+01  4.437173370472E+01
</grid-data>
</grid>
<valence-charge total-charge="13" is-unscreening-charge="yes"
 rescaled-to-z-pseudo="no">
<radfunc>
<data npts="458">
  2.762396609963E+00  2.765467704738E+00  2.774943205007E+00  2.790625186419E+00
  2.812422889672E+00  2.841074598740E+00  2.877574425663E+00  2.919347264936E+00
  2.966287438380E+00  3.020988331671E+00  3.082595372326E+00  3.149497361172E+00
  3.230267516909E+00  3.314524062373E+00  3.398592018666E+00  3.495299105292E+00
  3.606491677254E+00  3.711722775324E+00  3.829826216099E+00  3.962309390285E+00
  4.110837597105E+00  4.242439350726E+00  4.386501940536E+00  4.544123252327E+00
  4.716479919613E+00  4.904828776004E+00  5.110507149743E+00  5.276987689751E+00
  5.454637275763E+00  5.644104687718E+00  5.846059758410E+00  6.061190939560E+00
  6.290202121803E+00  6.533808580405E+00  6.792731901848E+00  7.067693728543E+00
  7.359408139996E+00  7.668572469197E+00  7.884708613883E+00  8.109087670771E+00
  8.341888638032E+00  8.583278387043E+00  8.833409258460E+00  9.092416409230E+00
  9.360414893806E+00  9.637496462961E+00  9.923726064077E+00  1.021913802758E+01
  1.052373192553E+01  1.083746809017E+01  1.116026278284E+01  1.149198300692E+01
  1.183244096255E+01  1.218138814639E+01  1.253850910590E+01  1.290341486543E+01
  1.327563605102E+01  1.365461575139E+01  1.403970216587E+01  1.443014110471E+01
  1.482506842420E+01  1.522350249845E+01  1.562433685086E+01  1.602633309252E+01
  1.642811434019E+01  1.682815931471E+01  1.722479734972E+01  1.742127486476E+01
  1.761620457098E+01  1.780933415734E+01  1.800040153717E+01  1.818913487721E+01
  1.837525266269E+01  1.855846380154E+01  1.873846777061E+01  1.891495480706E+01
  1.908760614814E+01  1.925609432238E+01  1.942008349545E+01  1.957922987381E+01
  1.973318216926E+01  1.988158212746E+01  2.002406512322E+01  2.016026082544E+01
  2.028979393426E+01  2.041228499269E+01  2.052735127490E+01  2.063460775289E+01
  2.073366814287E+01  2.082414603235E+01  2.090565608834E+01  2.097781534664E+01
  2.104024458142E+01  2.109256975383E+01  2.113442353750E+01  2.116544691796E+01
  2.118529086243E+01  2.119361805514E+01  2.119010469281E+01  2.117444233339E+01
  2.114633979083E+01  2.110552506672E+01  2.105174730937E+01  2.098477878910E+01
  2.090441687790E+01  2.081048602022E+01  2.070283968065E+01  2.058136225327E+01
  2.044597091648E+01  2.029661741614E+01  2.013328975926E+01  1.995601379957E+01
  1.976485469610E+01  1.955991822533E+01  1.934135192746E+01  1.910934606738E+01
  1.886413439132E+01  1.860599466058E+01  1.833524894479E+01  1.805226365809E+01
  1.775744932324E+01  1.745126005018E+01  1.713419271797E+01  1.680678585085E+01
  1.646961818242E+01  1.612330690436E+01  1.576850559951E+01  1.540590186261E+01
  1.503621461529E+01  1.466019112606E+01  1.427860374942E+01  1.389224640247E+01
  1.350193080110E+01  1.310848248146E+01  1.271273663632E+01  1.231553379907E+01
  1.191771541118E+01  1.152011931184E+01  1.112357519056E+01  1.072890004525E+01
  1.033689368966E+01  9.948334354507E+00  9.563974426441E+00  9.184536368498E+00
  8.810708864033E+00  8.443143224102E+00  8.082450095465E+00  7.729196502961E+00
  7.383903256035E+00  7.047042744705E+00  6.719037145349E+00  6.400257051444E+00
  6.091020538965E+00  5.791592670577E+00  5.502185437228E+00  5.222958130395E+00
  4.954018133080E+00  4.695422112796E+00  4.447177594891E+00  4.209244890671E+00
  3.981539352575E+00  3.763933926893E+00  3.556261972875E+00  3.358321094458E+00
  3.169880319556E+00  2.990689461471E+00  2.820481766507E+00  2.658976541678E+00
  2.505881731250E+00  2.360896445961E+00  2.223713415896E+00  2.094021357632E+00
  1.971507243145E+00  1.855858457888E+00  1.746764834751E+00  1.643920549536E+00
  1.547025862404E+00  1.455788688557E+00  1.369925980481E+00  1.289164903670E+00
  1.213243788057E+00  1.141912838749E+00  1.074934592142E+00  1.012083641215E+00
  9.531442718436E-01  8.979069228735E-01  8.461685003252E-01  7.977325881879E-01
  7.524096406171E-01  7.100171275059E-01  6.703796363019E-01  6.333289330080E-01
  5.987039853533E-01  5.663509511496E-01  5.361231348549E-01  5.078809153562E-01
  4.814916479439E-01  4.568295433904E-01  4.337755269539E-01  4.122170800146E-01
  3.920480669042E-01  3.731685493224E-01  3.554845905478E-01  3.389080514468E-01
  3.233563800811E-01  3.087523965109E-01  2.950240742049E-01  2.821043192953E-01
  2.699307487799E-01  2.584454686519E-01  2.475948528527E-01  2.373293238759E-01
  2.276031357986E-01  2.183741604799E-01  2.096036776238E-01  2.012561693712E-01
  1.932991200332E-01  1.857028215310E-01  1.784401850410E-01  1.714865592791E-01
  1.648195557803E-01  1.584188814589E-01  1.522661786555E-01  1.463448728049E-01
  1.406400277927E-01  1.351382090043E-01  1.298273540150E-01  1.246966508234E-01
  1.197364234862E-01  1.149380249821E-01  1.102937370998E-01  1.057966771286E-01
  1.014407111076E-01  9.722037337983E-02  9.313079218832E-02  8.916762104476E-02
  8.532697559819E-02  8.160537573128E-02  7.799969261197E-02  7.450710043140E-02
  7.112503256243E-02  6.785114187828E-02  6.468326497638E-02  6.161939005873E-02
  5.865762822716E-02  5.579618795921E-02  5.303335253785E-02  5.036746021654E-02
  4.779688690936E-02  4.532003120457E-02  4.293530150890E-02  4.064110513913E-02
  3.843583918706E-02  3.631788299394E-02  3.428559208078E-02  3.233729339160E-02
  3.047128171784E-02  2.868581718322E-02  2.697912368022E-02  2.534938816031E-02
  2.379476069133E-02  2.231335519862E-02  2.090325086490E-02  1.956249404633E-02
  1.828910074032E-02  1.708105951735E-02  1.593633488315E-02  1.485287103133E-02
  1.382859594631E-02  1.286142581417E-02  1.194926969629E-02  1.109003441679E-02
  1.028162961061E-02  9.521972875351E-03  8.808994967061E-03  8.140644978018E-03
  7.514895434458E-03  6.929747253109E-03  6.383234498357E-03  5.873428886168E-03
  5.398443986664E-03  4.956439084022E-03  4.545622660033E-03  4.164255475692E-03
  3.810653233434E-03  3.483188810696E-03  3.180294063171E-03  2.900461203180E-03
  2.642243764921E-03  2.404257173816E-03  2.185178941731E-03  1.983748513497E-03
  1.798766792860E-03  1.629095377906E-03  1.473655537056E-03  1.331426957148E-03
  1.201446294820E-03  1.082805561690E-03  9.746503725514E-04  8.761780842590E-04
  7.866358510917E-04  7.053186203456E-04  6.315670897062E-04  5.647656457028E-04
  5.043403002789E-04  4.497566402851E-04  4.005178025552E-04  3.561624851876E-04
  3.162630037675E-04  2.804233995305E-04  2.482776049160E-04  2.194876705878E-04
  1.937420568075E-04  1.707539910384E-04  1.502598928150E-04  1.320178662266E-04
  1.158062598158E-04  1.014222932672E-04  8.868074993965E-05  7.741273405407E-05
  6.746449117946E-05  5.869629053871E-05  5.098136757256E-05  4.420492514356E-05
  3.826319172101E-05  3.306253485698E-05  2.851862823676E-05  2.455567056175E-05
  2.110565449667E-05  1.810768388577E-05  1.550733741540E-05  1.325607687217E-05
  1.131069812058E-05  9.632822901321E-06  8.188429533007E-06  6.947420588856E-06
  5.883225614456E-06  4.972436956440E-06  4.194476783696E-06  3.531293403608E-06
  2.967085005540E-06  2.488049002132E-06  2.082155185384E-06  1.738940968407E-06
  1.449327044191E-06  1.205451858891E-06  1.000523368085E-06  8.286866190020E-07
  6.849057791202E-07  5.648593105818E-07  4.648470698580E-07  3.817081920260E-07
  3.127486982185E-07  2.556778425568E-07  2.085522905944E-07  1.697272944935E-07
  1.378141004030E-07  1.116428905044E-07  9.023062567398E-08  7.275321452961E-08
  5.852149066271E-08  4.696053210805E-08  3.759190552133E-08  3.001846216387E-08
  2.391135358817E-08  1.899897668362E-08  1.505756924684E-08  1.190327925699E-08
  9.385423818191E-09  7.380820600270E-09  5.789040499073E-09  4.528424943486E-09
  3.532756155172E-09  2.748483191241E-09  2.132417588568E-09  1.649824464764E-09
  1.255261570942E-09  9.659183933124E-10  7.411238012659E-10  5.669843382160E-10
  4.324809478613E-10  3.289000473449E-10  2.493716817262E-10  1.884957485943E-10
  1.420404293219E-10  1.066996334681E-10  7.989851968271E-11  5.963805736273E-11
  4.437118874119E-11  3.290448541114E-11  2.432030526569E-11  1.791537922612E-11
  1.315252117428E-11  9.622784429712E-12  7.015905585915E-12  5.097300073592E-12
  3.690219232215E-12  2.661959324977E-12  1.913240123481E-12  1.370053916011E-12
  9.774330091058E-13  6.947016264206E-13  4.918720654568E-13  3.469196017979E-13
  2.437296776180E-13  1.705574467820E-13  1.188762789023E-13  8.252038607204E-14
  5.704897698560E-14  3.927659195210E-14  2.692759449016E-14  1.838304193987E-14
  1.249600576232E-14  8.457397894819E-15  5.698905167822E-15  3.823070894411E-15
  2.553150290708E-15  1.697305758138E-15  1.123155132028E-15  7.397608694355E-16
  4.849429049131E-16  3.163828331038E-16  2.054155701974E-16  1.327170604271E-16
  8.532328854933E-17  5.457956084078E-17  3.473665343006E-17  2.199454354902E-17
  1.385428767777E-17  8.680977401325E-18  5.410542404298E-18  3.354076674535E-18
  2.067935936911E-18  1.267957388573E-18  7.731200718414E-19  4.687430374734E-19
  2.825783145812E-19  1.693671274876E-19  1.009195987460E-19  5.977883629755E-20
  3.519767871216E-20  2.059889465175E-20  1.198134191037E-20  6.925746612889E-21
  3.978275694052E-21  2.270687924563E-21  1.287718903442E-21  7.255244882188E-22
  4.060844625970E-22  2.257768559394E-22  1.246826977277E-22  6.838502420279E-23
  3.724846595740E-23  0.000000000000E+00  0.000000000000E+00  0.000000000000E+00
  0.000000000000E+00  0.000000000000E+00
</data>
</radfunc>
</valence-charge>
<pseudocore-charge matching-radius="0.500303679008"
 number-of-continuous-derivatives="4">
<annotation model-charge-form="Teter function with specified parameters" />
<radfunc>
<data npts="291">
  1.054624675058E+02  1.054427236451E+02  1.053818155188E+02  1.052810432211E+02
  1.051410351921E+02  1.049571163732E+02  1.047230051873E+02  1.044553277846E+02
  1.041548630232E+02  1.038051546436E+02  1.034118517508E+02  1.029854132470E+02
  1.024715027574E+02  1.019364858908E+02  1.014037597836E+02  1.007922893582E+02
  1.000910070328E+02  9.942907135094E+01  9.868818427077E+01  9.785962532003E+01
  9.693389737591E+01  9.611646461956E+01  9.522463712141E+01  9.425245963032E+01
  9.319367108523E+01  9.204172759848E+01  9.078983669428E+01  8.978112699343E+01
  8.870926164534E+01  8.757121158097E+01  8.636394584782E+01  8.508445864906E+01
  8.372980104643E+01  8.229711777220E+01  8.078368958598E+01  7.918698158721E+01
  7.750469784805E+01  7.573484266017E+01  7.450546735404E+01  7.323606293514E+01
  7.192635136978E+01  7.057616383587E+01  6.918545245242E+01  6.775430251332E+01
  6.628294516999E+01  6.477177049197E+01  6.322134081702E+01  6.163240428244E+01
  6.000590840834E+01  5.834301357990E+01  5.664510625101E+01  5.491381166460E+01
  5.315100585768E+01  5.135882668955E+01  4.953968360322E+01  4.769626580049E+01
  4.583154848364E+01  4.394879679081E+01  4.205156702924E+01  4.014370479316E+01
  3.822933954058E+01  3.631287519998E+01  3.439897638358E+01  3.249254980200E+01
  3.059872050750E+01  2.872280264158E+01  2.687026443050E+01  2.595450370006E+01
  2.504668726004E+01  2.414752276940E+01  2.325771877236E+01  2.237798291268E+01
  2.150902006179E+01  2.065153036442E+01  1.980620720595E+01  1.897373510711E+01
  1.815478755187E+01  1.735002475581E+01  1.656009138297E+01  1.578561422018E+01
  1.502719981886E+01  1.428543211532E+01  1.356087004159E+01  1.285404513959E+01
  1.216545919284E+01  1.149558189020E+01  1.084484853771E+01  1.021365783474E+01
  9.602369731890E+00  9.011303388317E+00  8.440735246996E+00  7.890897246511E+00
  7.361975188377E+00  6.854107278863E+00  6.367382864157E+00  5.901841377373E+00
  5.457471515321E+00  5.034210662165E+00  4.631944576012E+00  4.250507353166E+00
  3.889681683175E+00  3.549199405912E+00  3.228742379796E+00  2.927943667780E+00
  2.646389045057E+00  2.383618829450E+00  2.139130032215E+00  1.912378823603E+00
  1.702783303836E+00  1.509726566446E+00  1.332560036991E+00  1.170607066253E+00
  1.023166753080E+00  8.895179681533E-01  7.689235462176E-01  6.606346108017E-01
  5.638949921775E-01  4.779456964481E-01  4.020293812089E-01  3.353947913275E-01
  2.773011070850E-01  2.270221563063E-01  1.838504422351E-01  1.471009398391E-01
  1.161146150093E-01  9.026162376770E-02  6.894415213808E-02  5.159886174723E-02
  3.769891148770E-02  2.675553162643E-02  1.831913351102E-02  1.197994540174E-02
  7.368172812857E-03  4.153689929326E-03  2.045276998374E-03  7.894268870656E-04
  1.687520377855E-04  3.062624707676E-08  1.319376099695E-04  4.425123319675E-04
  8.364192089370E-04  1.242061599582E-03  1.608611059308E-03  1.903014721374E-03
  2.107042425322E-03  2.214432416173E-03  2.228189994506E-03  2.158087500905E-03
  2.018406623132E-03  1.825955436686E-03  1.598383101421E-03  1.352805060845E-03
  1.104741287532E-03  8.673599746100E-04  6.510094859836E-04  4.630127348330E-04
  3.076908211636E-04  1.865770372573E-04  9.877849071530E-05  4.144076064181E-05
  1.027125843488E-05  7.926929054453E-08  5.294852800920E-06  2.043462317216E-05
  4.048955736245E-05  6.121795937088E-05  7.933505221233E-05  9.259886119348E-05
  9.979958601796E-05  1.006660709766E-04  9.570788542105E-05  8.601464255084E-05
  7.303536753607E-05  5.835997815975E-05  4.352241597775E-05  2.984095947213E-05
  1.830617932327E-05  9.521362641708E-06  3.694583082669E-06  6.764646203402E-07
  3.355586551723E-08  1.144468259880E-06  3.304756561334E-06  5.826981920328E-06
  8.124364324230E-06  9.769602627903E-06  1.052438289734E-05  1.033929191139E-05
  9.327764478462E-06  7.720830531035E-06  5.811412767565E-06  3.897543840557E-06
  2.233104355411E-06  9.927085633928E-07  2.545365125892E-07  1.703807742197E-09
  0.000000000000E+00  0.000000000000E+00  0.000000000000E+00  0.000000000000E+00
  0.000000000000E+00  0.000000000000E+00  0.000000000000E+00  0.000000000000E+00
  0.000000000000E+00  0.000000000000E+00  0.000000000000E+00  0.000000000000E+00
  0.000000000000E+00  0.000000000000E+00  0.000000000000E+00  0.000000000000E+00
  0.000000000000E+00  0.000000000000E+00  0.000000000000E+00  0.000000000000E+00
  0.000000000000E+00  0.000000000000E+00  0.000000000000E+00  0.000000000000E+00
  0.000000000000E+00  0.000000000000E+00  0.000000000000E+00  0.000000000000E+00
  0.000000000000E+00  0.000000000000E+00  0.000000000000E+00  0.000000000000E+00
  0.000000000000E+00  0.000000000000E+00  0.000000000000E+00  0.000000000000E+00
  0.000000000000E+00  0.000000000000E+00  0.000000000000E+00  0.000000000000E+00
  0.000000000000E+00  0.000000000000E+00  0.000000000000E+00  0.000000000000E+00
  0.000000000000E+00  0.000000000000E+00  0.000000000000E+00  0.000000000000E+00
  0.000000000000E+00  0.000000000000E+00  0.000000000000E+00  0.000000000000E+00
  0.000000000000E+00  0.000000000000E+00  0.000000000000E+00  0.000000000000E+00
  0.000000000000E+00  0.000000000000E+00  0.000000000000E+00  0.000000000000E+00
  0.000000000000E+00  0.000000000000E+00  0.000000000000E+00  0.000000000000E+00
  0.000000000000E+00  0.000000000000E+00  0.000000000000E+00  0.000000000000E+00
  0.000000000000E+00  0.000000000000E+00  0.000000000000E+00  0.000000000000E+00
  0.000000000000E+00  0.000000000000E+00  0.000000000000E+00  0.000000000000E+00
  0.000000000000E+00  0.000000000000E+00  0.000000000000E+00  0.000000000000E+00
  0.000000000000E+00  0.000000000000E+00  0.000000000000E+00  0.000000000000E+00
  0.000000000000E+00  0.000000000000E+00  0.000000000000E+00  0.000000000000E+00
  0.000000000000E+00  0.000000000000E+00  0.000000000000E+00  0.000000000000E+00
  0.000000000000E+00  0.000000000000E+00  0.000000000000E+00
</data>
</radfunc>
</pseudocore-charge>
<semilocal-potentials set="lj">
<slps n="3" l="s" j="0.5" rc="1.31478641867" eref="-2.57326143818">
<radfunc>
<data npts="291">
 -4.869130933513E+00 -4.871536667747E+00 -4.878956589862E+00 -4.891229531587E+00
 -4.908274293844E+00 -4.930653100316E+00 -4.959120005680E+00 -4.991642157298E+00
 -5.028114629338E+00 -5.070520491492E+00 -5.118156168104E+00 -5.169737890324E+00
 -5.231807724407E+00 -5.296320083398E+00 -5.360448797125E+00 -5.433925425309E+00
 -5.518022906022E+00 -5.597235471490E+00 -5.685705976130E+00 -5.784410062258E+00
 -5.894398786418E+00 -5.991268300451E+00 -6.096687176306E+00 -6.211290569429E+00
 -6.335737129856E+00 -6.470704768825E+00 -6.616885123640E+00 -6.734298811574E+00
 -6.858706839943E+00 -6.990400503859E+00 -7.129665250767E+00 -7.276777492602E+00
 -7.432001016861E+00 -7.595582979861E+00 -7.767749469866E+00 -7.948700633318E+00
 -8.138605363960E+00 -8.337595562196E+00 -8.475348975402E+00 -8.617195149111E+00
 -8.763137680505E+00 -8.913168526017E+00 -9.067267045423E+00 -9.225399023513E+00
 -9.387515673016E+00 -9.553552622795E+00 -9.723428895639E+00 -9.897045880242E+00
 -1.007428630218E+01 -1.025501319888E+01 -1.043906890368E+01 -1.062627404422E+01
 -1.081642656020E+01 -1.100930074597E+01 -1.120464632297E+01 -1.140218754739E+01
 -1.160162235853E+01 -1.180262157344E+01 -1.200482813460E+01 -1.220785641794E+01
 -1.241129161076E+01 -1.261468917199E+01 -1.281757439114E+01 -1.301944206923E+01
 -1.321975635318E+01 -1.341795076796E+01 -1.361342850642E+01 -1.370995397195E+01
 -1.380556305769E+01 -1.390017298411E+01 -1.399369927948E+01 -1.408605584736E+01
 -1.417715504668E+01 -1.426690778612E+01 -1.435522363413E+01 -1.444201094581E+01
 -1.452717700806E+01 -1.461062820383E+01 -1.469227019612E+01 -1.477200813185E+01
 -1.484974686510E+01 -1.492539119833E+01 -1.499884613936E+01 -1.507001717084E+01
 -1.513881052766E+01 -1.520513347676E+01 -1.526889459262E+01 -1.533000402091E+01
 -1.538837372205E+01 -1.544391768647E+01 -1.549655211365E+01 -1.554619554797E+01
 -1.559276896643E+01 -1.563619581530E+01 -1.567640199599E+01 -1.571331580340E+01
 -1.574686782372E+01 -1.577699080123E+01 -1.580361948681E+01 -1.582669048199E+01
 -1.584614209330E+01 -1.586191421109E+01 -1.587394822519E+01 -1.588218698724E+01
 -1.588657482631E+01 -1.588705762063E+01 -1.588358292490E+01 -1.587610014950E+01
 -1.586456078515E+01 -1.584891866497E+01 -1.582913025465E+01 -1.580515496074E+01
 -1.577695544741E+01 -1.574449795180E+01 -1.570775258890E+01 -1.566669363706E+01
 -1.562129979612E+01 -1.557155441060E+01 -1.551744565136E+01 -1.545896665065E+01
 -1.539611558690E+01 -1.532889571819E+01 -1.525731536581E+01 -1.518138785308E+01
 -1.510113140758E+01 -1.501656903907E+01 -1.492772840867E+01 -1.483464170804E+01
 -1.473734556976E+01 -1.463588103215E+01 -1.453029358255E+01 -1.442063330353E+01
 -1.430695514578E+01 -1.418931935074E+01 -1.406779204414E+01 -1.394244601996E+01
 -1.381336173218E+01 -1.368062850931E+01 -1.354434600429E+01 -1.340462588912E+01
 -1.326159380079E+01 -1.311539154037E+01 -1.296617952277E+01 -1.281413946809E+01
 -1.265947731843E+01 -1.250242635418E+01 -1.234325047364E+01 -1.218224758602E+01
 -1.201975305369E+01 -1.185614310211E+01 -1.169183809812E+01 -1.152730557710E+01