<?xml version="1.0" encoding="UTF-8" ?>
<psml version="1.1" energy_unit="hartree" length_unit="bohr"
 uuid="097c8b70-53a0-11e8-63a7-15d1dfff1faf"
 xmlns="http://esl.cecam.org/PSML/ns/1.1">
<provenance creator="ONCVPSP-3.3.0+psml-3.3.0-73 (fully-relativistic)"
 date="2018-05-09">
<annotation action="semilocal-pseudopotential-generation"
 action-cont="projectors-generation" />
<input-file name="oncvpsp-input">
<![CDATA[# atsym z nc nv iexc psfile
Po 84 12 3 -116133 upf
# n l f
1 0 2.0
2 0 2.0
2 1 6.0
3 0 2.0
3 1 6.0
3 2 10.0
4 0 2.0
4 1 6.0
4 2 10.0
5 0 2.0
5 1 6.0
4 3 14.0
5 2 10.0
6 0 2.0
6 1 4.0
# lmax
2
# l rc ep ncon nbas qcut
0 2.3 0.0 4 7 3.6
1 2.2 0.0 4 8 4.6
2 1.9 0.0 4 8 8.0
# lloc lpopt rc5 dvloc0
4 5 1.9 0.0
# l nproj debl
0 2 2.4
1 2 2.5
2 2 2.5
# icmod fcfact
3 6 1.34
# epsh1 epsh2 depsh
-12.0 12.0 0.02
# rlmax drl
6.0 0.01
 0
]]>
</input-file>
</provenance>
<pseudo-atom-spec atomic-label="Po" atomic-number="84" z-pseudo="16"
 flavor="Hamann&apos;s oncvpsp" relativity="dirac" spin-dft="no"
 core-corrections="yes">
<annotation pseudo-energy="-82.9133953483" />
<exchange-correlation>
<annotation oncvpsp-xc-code="-116133" oncvpsp-xc-type="libxc-interface" />
<libxc-info number-of-functionals="2">
<functional name="Perdew, Burke &amp; Ernzerhof SOL (GGA)" type="exchange"
 id="116" />
<functional name="Perdew, Burke &amp; Ernzerhof SOL (GGA)" type="correlation"
 id="133" />
</libxc-info>
</exchange-correlation>
<valence-configuration total-valence-charge="16">
<shell n="5" l="d" occupation="10" />
<shell n="6" l="s" occupation="2" />
<shell n="6" l="p" occupation="4" />
</valence-configuration>
</pseudo-atom-spec>
<grid npts="457">
<annotation type="sampled from oncvpsp log grid"
 recipe="r(i:1..N) = r1*exp(a*(i-1)) + r=0; resampled"
 recipe-cont="r1: scale; a: step" scale="0.595238095238E-05"
 step="0.119285708653E-01" delta="0.500000000000E-02" rmax="44.0605889801" />
<grid-data>
  0.000000000000E+00  5.031300802255E-03  1.004962851020E-02  1.507604528350E-02
  2.031422441398E-02  2.548179300022E-02  3.084027084741E-02  3.601345981203E-02
  4.106298189261E-02  4.626532407434E-02  5.150865635998E-02  5.666623015056E-02
  6.234023300928E-02  6.776914535508E-02  7.279726845657E-02  7.819845251068E-02
  8.400037672722E-02  8.916282012991E-02  9.464253379881E-02  1.004590163345E-01
  1.066329646705E-01  1.118442171143E-01  1.173101483258E-01  1.230432046939E-01
  1.290564408741E-01  1.353635495152E-01  1.419788924385E-01  1.471517127873E-01
  1.525129982658E-01  1.580696153610E-01  1.638286807322E-01  1.697975703246E-01
  1.759839288168E-01  1.823956794117E-01  1.890410339838E-01  1.959285035968E-01
  2.030669094043E-01  2.104653939473E-01  2.155468704188E-01  2.207510340582E-01
  2.260808470245E-01  2.315393429950E-01  2.371296288923E-01  2.428548866523E-01
  2.487183750356E-01  2.547234314824E-01  2.608734740122E-01  2.671720031687E-01
  2.736226040132E-01  2.802289481645E-01  2.869947958890E-01  2.939239982409E-01
  3.010204992545E-01  3.082883381885E-01  3.157316518257E-01  3.233546768274E-01
  3.311617521447E-01  3.391573214885E-01  3.473459358585E-01  3.557322561339E-01
  3.643210557260E-01  3.731172232954E-01  3.821257655346E-01  3.913518100177E-01
  4.008006081188E-01  4.104775380012E-01  4.203881076787E-01  4.254327649708E-01
  4.305379581505E-01  4.357044136483E-01  4.409328666121E-01  4.462240610114E-01
  4.515787497436E-01  4.569976947405E-01  4.624816670774E-01  4.680314470823E-01
  4.736478244473E-01  4.793315983407E-01  4.850835775207E-01  4.909045804510E-01
  4.967954354164E-01  5.027569806414E-01  5.087900644091E-01  5.148955451820E-01
  5.210742917242E-01  5.273271832249E-01  5.336551094236E-01  5.400589707367E-01
  5.465396783855E-01  5.530981545261E-01  5.597353323804E-01  5.664521563690E-01
  5.732495822454E-01  5.801285772324E-01  5.870901201592E-01  5.941352016011E-01
  6.012648240203E-01  6.084800019085E-01  6.157817619314E-01  6.231711430746E-01
  6.306491967915E-01  6.382169871530E-01  6.458755909988E-01  6.536260980908E-01
  6.614696112679E-01  6.694072466031E-01  6.774401335624E-01  6.855694151651E-01
  6.937962481471E-01  7.021218031249E-01  7.105472647624E-01  7.190738319395E-01
  7.277027179228E-01  7.364351505379E-01  7.452723723443E-01  7.542156408125E-01
  7.632662285022E-01  7.724254232442E-01  7.816945283232E-01  7.910748626630E-01
  8.005677610150E-01  8.101745741472E-01  8.198966690369E-01  8.297354290654E-01
  8.396922542142E-01  8.497685612647E-01  8.599657839999E-01  8.702853734079E-01
  8.807287978888E-01  8.912975434635E-01  9.019931139850E-01  9.128170313529E-01
  9.237708357291E-01  9.348560857578E-01  9.460743587869E-01  9.574272510924E-01
  9.689163781055E-01  9.805433746428E-01  9.923098951385E-01  1.004217613880E+00
  1.016268225247E+00  1.028463443950E+00  1.040805005277E+00  1.053294665340E+00
  1.065934201324E+00  1.078725411740E+00  1.091670116681E+00  1.104770158081E+00
  1.118027399978E+00  1.131443728778E+00  1.145021053523E+00  1.158761306166E+00
  1.172666441840E+00  1.186738439142E+00  1.200979300412E+00  1.215391052016E+00
  1.229975744641E+00  1.244735453576E+00  1.259672279019E+00  1.274788346367E+00
  1.290085806524E+00  1.305566836202E+00  1.321233638237E+00  1.337088441895E+00
  1.353133503198E+00  1.369371105237E+00  1.385803558499E+00  1.402433201201E+00
  1.419262399616E+00  1.436293548411E+00  1.453529070992E+00  1.470971419844E+00
  1.488623076882E+00  1.506486553805E+00  1.524564392450E+00  1.542859165160E+00
  1.561373475142E+00  1.580109956843E+00  1.599071276326E+00  1.618260131641E+00
  1.637679253221E+00  1.657331404260E+00  1.677219381111E+00  1.697346013684E+00
  1.717714165848E+00  1.738326735839E+00  1.759186656669E+00  1.780296896549E+00
  1.801660459307E+00  1.823280384819E+00  1.845159749437E+00  1.867301666430E+00
  1.889709286427E+00  1.912385797864E+00  1.935334427439E+00  1.958558440568E+00
  1.982061141855E+00  2.005845875557E+00  2.029916026064E+00  2.054275018377E+00
  2.078926318597E+00  2.103873434420E+00  2.129119915633E+00  2.154669354621E+00
  2.180525386876E+00  2.206691691519E+00  2.233171991817E+00  2.259970055719E+00
  2.287089696387E+00  2.314534772744E+00  2.342309190017E+00  2.370416900297E+00
  2.398861903101E+00  2.427648245938E+00  2.456780024889E+00  2.486261385188E+00
  2.516096521810E+00  2.546289680072E+00  2.576845156233E+00  2.607767298108E+00
  2.639060505685E+00  2.670729231753E+00  2.702777982534E+00  2.735211318325E+00
  2.768033854144E+00  2.801250260394E+00  2.834865263519E+00  2.868883646681E+00
  2.903310250441E+00  2.938149973447E+00  2.973407773128E+00  3.009088666406E+00
  3.045197730402E+00  3.081740103167E+00  3.118720984405E+00  3.156145636218E+00
  3.194019383853E+00  3.232347616459E+00  3.271135787856E+00  3.310389417311E+00
  3.350114090318E+00  3.390315459402E+00  3.430999244915E+00  3.472171235854E+00
  3.513837290684E+00  3.556003338173E+00  3.598675378231E+00  3.641859482769E+00
  3.685561796563E+00  3.729788538121E+00  3.774546000579E+00  3.819840552586E+00
  3.865678639217E+00  3.912066782887E+00  3.959011584282E+00  4.006519723293E+00
  4.054597959973E+00  4.103253135493E+00  4.152492173119E+00  4.202322079196E+00
  4.252749944146E+00  4.303782943476E+00  4.355428338798E+00  4.407693478863E+00
  4.460585800610E+00  4.514112830217E+00  4.568282184180E+00  4.623101570390E+00
  4.678578789234E+00  4.734721734705E+00  4.791538395522E+00  4.849036856268E+00
  4.907225298543E+00  4.966112002126E+00  5.025705346151E+00  5.086013810305E+00
  5.147045976029E+00  5.208810527741E+00  5.271316254074E+00  5.334572049123E+00
  5.398586913712E+00  5.463369956677E+00  5.528930396157E+00  5.595277560911E+00
  5.662420891642E+00  5.730369942342E+00  5.799134381650E+00  5.868723994229E+00
  5.939148682160E+00  6.010418466346E+00  6.082543487942E+00  6.155534009798E+00
  6.229400417915E+00  6.304153222930E+00  6.379803061605E+00  6.456360698345E+00
  6.533837026725E+00  6.612243071045E+00  6.691589987898E+00  6.771889067753E+00
  6.853151736566E+00  6.935389557405E+00  7.018614232093E+00  7.102837602878E+00
  7.188071654113E+00  7.274328513962E+00  7.361620456130E+00  7.449959901603E+00
  7.539359420423E+00  7.629831733468E+00  7.721389714269E+00  7.814046390841E+00
  7.907814947531E+00  8.002708726901E+00  8.098741231624E+00  8.195926126403E+00
  8.294277239920E+00  8.393808566799E+00  8.494534269601E+00  8.596468680836E+00
  8.699626305006E+00  8.804021820666E+00  8.909670082514E+00  9.016586123504E+00
  9.124785156986E+00  9.234282578870E+00  9.345093969817E+00  9.457235097454E+00
  9.570721918624E+00  9.685570581647E+00  9.801797428627E+00  9.919418997771E+00
  1.003845202574E+01  1.015891345005E+01  1.028082041145E+01  1.040419025639E+01
  1.052904053947E+01  1.065538902594E+01  1.078325369425E+01  1.091265273858E+01
  1.104360457145E+01  1.117612782630E+01  1.131024136022E+01  1.144596425654E+01
  1.158331582762E+01  1.172231561755E+01  1.186298340496E+01  1.200533920582E+01
  1.214940327629E+01  1.229519611561E+01  1.244273846900E+01  1.259205133062E+01
  1.274315594659E+01  1.289607381795E+01  1.305082670376E+01  1.320743662421E+01
  1.336592586370E+01  1.352631697407E+01  1.368863277775E+01  1.385289637109E+01
  1.401913112754E+01  1.418736070107E+01  1.435760902948E+01  1.452990033784E+01
  1.470425914189E+01  1.488071025159E+01  1.505927877461E+01  1.523999011991E+01
  1.542287000135E+01  1.560794444136E+01  1.579523977466E+01  1.598478265196E+01
  1.617660004378E+01  1.637071924430E+01  1.656716787524E+01  1.676597388974E+01
  1.696716557642E+01  1.717077156333E+01  1.737682082209E+01  1.758534267196E+01
  1.779636678402E+01  1.800992318543E+01  1.822604226365E+01  1.844475477082E+01
  1.866609182807E+01  1.889008493001E+01  1.911676594917E+01  1.934616714056E+01
  1.957832114624E+01  1.981326100000E+01  2.005102013200E+01  2.029163237358E+01
  2.053513196206E+01  2.078155354561E+01  2.103093218816E+01  2.128330337441E+01
  2.153870301491E+01  2.179716745109E+01  2.205873346050E+01  2.232343826202E+01
  2.259131952117E+01  2.286241535542E+01  2.313676433969E+01  2.341440551176E+01
  2.369537837791E+01  2.397972291844E+01  2.426747959346E+01  2.455868934858E+01
  2.485339362077E+01  2.515163434422E+01  2.545345395635E+01  2.575889540382E+01
  2.606800214867E+01  2.638081817445E+01  2.669738799255E+01  2.701775664846E+01
  2.734196972824E+01  2.767007336498E+01  2.800211424536E+01  2.833813961630E+01
  2.867819729170E+01  2.902233565920E+01  2.937060368711E+01  2.972305093135E+01
  3.007972754253E+01  3.044068427304E+01  3.080597248431E+01  3.117564415413E+01
  3.154975188398E+01  3.192834890658E+01  3.231148909346E+01  3.269922696258E+01
  3.309161768614E+01  3.348871709837E+01  3.389058170355E+01  3.429726868399E+01
  3.470883590820E+01  3.512534193910E+01  3.554684604237E+01  3.597340819488E+01
  3.640508909321E+01  3.684195016233E+01  3.728405356428E+01  3.773146220705E+01
  3.818423975354E+01  3.864245063058E+01  3.910616003815E+01  3.957543395860E+01
  4.005033916611E+01  4.053094323610E+01  4.101731455493E+01  4.150952232959E+01
  4.200763659755E+01  4.251172823672E+01  4.302186897556E+01  4.353813140327E+01
  4.406058898011E+01
</grid-data>
</grid>
<valence-charge total-charge="16" is-unscreening-charge="yes"
 rescaled-to-z-pseudo="no">
<radfunc>
<data npts="457">
  1.778925920170E-02  1.779555390162E-02  1.781600972790E-02  1.785560354040E-02
  1.792607149322E-02  1.803734163070E-02  1.821384213400E-02  1.846366409779E-02
  1.880535710108E-02  1.928503889956E-02  1.993045154037E-02  2.075771559629E-02
  2.193209938141E-02  2.336232393490E-02  2.499857261168E-02  2.713990014966E-02
  2.994543465847E-02  3.293987947381E-02  3.669481297032E-02  4.140472010187E-02
  4.731325268613E-02  5.310553529923E-02  6.004891324028E-02  6.837056069338E-02
  7.834130895654E-02  9.028358527091E-02  1.045806398408E-01  1.171192869618E-01
  1.314587168699E-01  1.478508019013E-01  1.665807434674E-01  1.879710101907E-01
  2.123856253722E-01  2.402348045228E-01  2.719799336651E-01  3.081388658758E-01
  3.492914964243E-01  3.960855551010E-01  4.307687952319E-01  4.685115642210E-01
  5.095635799962E-01  5.541918141858E-01  6.026811961707E-01  6.553352616921E-01
  7.124767269361E-01  7.744479660621E-01  8.416113669190E-01  9.143495361798E-01
  9.930653213478E-01  1.078181613052E+00  1.170140886789E+00  1.269404438824E+00
  1.376451266417E+00  1.491776537912E+00  1.615889593733E+00  1.749311414990E+00
  1.892571492445E+00  2.046204025243E+00  2.210743376261E+00  2.386718709530E+00
  2.574647735234E+00  2.775029489714E+00  2.988336082142E+00  3.215003346556E+00
  3.455420348360E+00  3.709917708745E+00  3.978754729378E+00  4.118608704432E+00
  4.262105323848E+00  4.409250486766E+00  4.560042792266E+00  4.714473005841E+00
  4.872523511784E+00  5.034167752872E+00  5.199369658985E+00  5.368083066507E+00
  5.540251130637E+00  5.715805732995E+00  5.894666887193E+00  6.076742145336E+00
  6.261926008729E+00  6.450099346374E+00  6.641128825177E+00  6.834866356111E+00
  7.031148560921E+00  7.229796264286E+00  7.430614016704E+00  7.633389653688E+00
  7.837893897179E+00  8.043880005404E+00  8.251083477692E+00  8.459221821017E+00
  8.667994385304E+00  8.877082274695E+00  9.086148342183E+00  9.294837275082E+00
  9.502775778904E+00  9.709572867162E+00  9.914820264574E+00  1.011809293096E+01
  1.031894971285E+01  1.051693412959E+01  1.071157530008E+01  1.090238901589E+01
  1.108887896578E+01  1.127053811578E+01  1.144685024809E+01  1.161729166098E+01
  1.178133303068E+01  1.193844143476E+01  1.208808253533E+01  1.222972291822E+01
  1.236283258317E+01  1.248688757755E+01  1.260137276467E+01  1.270578471506E+01
  1.279963470755E+01  1.288245182407E+01  1.295378612020E+01  1.301321185108E+01
  1.306033072985E+01  1.309477519379E+01  1.311621165077E+01  1.312434367706E+01
  1.311891513530E+01  1.309971317998E+01  1.306657111624E+01  1.301937107709E+01
  1.295804648297E+01  1.288258424768E+01  1.279302669475E+01  1.268947314906E+01
  1.257208116958E+01  1.244106739124E+01  1.229670794609E+01  1.213933843688E+01
  1.196935344024E+01  1.178720552044E+01  1.159340373987E+01  1.138851165767E+01
  1.117314481413E+01  1.094796770448E+01  1.071369025300E+01  1.047106380500E+01
  1.022087666179E+01  9.963949191029E+00  9.701128551896E+00  9.433283081924E+00
  9.161296398655E+00  8.886061275661E+00  8.608473357874E+00  8.329424785830E+00
  8.049797802158E+00  7.770458416233E+00  7.492250204315E+00  7.215988322617E+00
  6.942453809453E+00  6.672388250001E+00  6.406488873134E+00  6.145404144324E+00
  5.889729911937E+00  5.640006156243E+00  5.396714381500E+00  5.160275681558E+00
  4.931049498845E+00  4.709333085554E+00  4.495361664553E+00  4.289309276320E+00
  4.091290287223E+00  3.901361524077E+00  3.719524990243E+00  3.545731109896E+00
  3.379882439593E+00  3.221837780119E+00  3.071416616769E+00  2.928403812950E+00
  2.792554480091E+00  2.663598946370E+00  2.541247747624E+00  2.425196565830E+00
  2.315131043604E+00  2.210731407119E+00  2.111676834528E+00  2.017649512251E+00
  1.928338327267E+00  1.843442149790E+00  1.762672667376E+00  1.685756738667E+00
  1.612438242736E+00  1.542479408421E+00  1.475661617257E+00  1.411785683744E+00
  1.350671627637E+00  1.292157964681E+00  1.236100181353E+00  1.182367507506E+00
  1.130839183470E+00  1.081404077020E+00  1.033960108994E+00  9.884136435066E-01
  9.446788157929E-01  9.026768209854E-01  8.623351875481E-01  8.235870587370E-01
  7.863705043565E-01  7.506278832567E-01  7.163051534293E-01  6.833507587836E-01
  6.517143266499E-01  6.213462144878E-01  5.921976308708E-01  5.642212083967E-01
  5.373719959933E-01  5.116074786558E-01  4.868872136790E-01  4.631727676332E-01
  4.404275542846E-01  4.186166978508E-01  3.977069034488E-01  3.776663361620E-01
  3.584645088584E-01  3.400721783949E-01  3.224612500896E-01  3.056046901716E-01
  2.894764458972E-01  2.740513729880E-01  2.593051700157E-01  2.452143193459E-01
  2.317560342324E-01  2.189082116503E-01  2.066493904512E-01  1.949587144261E-01
  1.838158998657E-01  1.732012072184E-01  1.630954164580E-01  1.534798057723E-01
  1.443361332432E-01  1.356466211463E-01  1.273939425609E-01  1.195612099867E-01
  1.121319656833E-01  1.050901734720E-01  9.842021175874E-02  9.210686755960E-02
  8.613533133135E-02  8.049119242881E-02  7.516043503274E-02  7.012943440788E-02
  6.538495338764E-02  6.091413895887E-02  5.670451888804E-02  5.274399831250E-02
  4.902085624694E-02  4.552374196770E-02  4.224167124899E-02  3.916402243590E-02
  3.628053234693E-02  3.358129200594E-02  3.105674220720E-02  2.869766892060E-02
  2.649519854434E-02  2.444079301207E-02  2.252624475920E-02  2.074367155048E-02
  1.908551116715E-02  1.754451594883E-02  1.611374718168E-02  1.478656932213E-02
  1.355664404353E-02  1.241792409264E-02  1.136464694364E-02  1.039132823904E-02
  9.492755009945E-03  8.663978671976E-03  7.900307797908E-03  7.197300672873E-03
  6.550757643407E-03  5.956713276595E-03  5.411428350420E-03  4.911381700615E-03
  4.453261952941E-03  4.033959172588E-03  3.650556464379E-03  3.300321558588E-03
  2.980698417496E-03  2.689298897371E-03  2.423894499435E-03  2.182408241653E-03
  1.962906680994E-03  1.763592113185E-03  1.582794974125E-03  1.418966464025E-03
  1.270671412156E-03  1.136581396882E-03  1.015468132476E-03  9.061971311526E-04
  8.077216458234E-04  7.190768963802E-04  6.393745797845E-04  5.677976620112E-04
  5.035954479017E-04  4.460789232693E-04  3.946163621586E-04  3.486291909930E-04
  3.075881004274E-04  2.710093950541E-04  2.384515706556E-04  2.095121084488E-04
  1.838244756799E-04  1.610553219986E-04  1.409018612185E-04  1.230894283544E-04
  1.073692021664E-04  9.351608384007E-05  8.132672285161E-05  7.061768150227E-05
  6.122373004155E-05  5.299626472288E-05  4.580184154293E-05  3.952081880134E-05
  3.404610197839E-05  2.928198476461E-05  2.514308038720E-05  2.155333766693E-05
  1.844513650625E-05  1.575845775871E-05  1.344012266320E-05  1.144309724675E-05
  9.725857309637E-06  8.251809807571E-06  6.988766640407E-06  5.908467046095E-06
  4.986144983745E-06  4.200138071467E-06  3.531534823463E-06  2.963857106975E-06
  2.482774913066E-06  2.075850705646E-06  1.732310780366E-06  1.442841228556E-06
  1.199406260883E-06  9.950868003350E-07  8.239374040631E-07  6.808597181213E-07
  5.614908078319E-07  4.621048390426E-07  3.795267116831E-07  3.110563665724E-07
  2.544025992338E-07  2.076253205043E-07  1.690853029595E-07  1.374005447004E-07
  1.114084679586E-07  9.013324945307E-08  7.275765267259E-08  5.859879949474E-08
  4.708738006664E-08  3.774985593336E-08  3.019326232175E-08  2.409226157444E-08
  1.917814129865E-08  1.522948816372E-08  1.206430176080E-08  9.533342835028E-09
  7.514536809967E-09  5.908277131494E-09  4.633493834734E-09  3.624371140491E-09
  2.827614058295E-09  2.200178137935E-09  1.707388879911E-09  1.321388081722E-09
  1.019853739572E-09  7.849482069528E-10  6.024562811252E-10  4.610808800735E-10
  3.518691073207E-10  2.677458888292E-10  2.031361023135E-10  1.536592912290E-10
  1.158837401836E-10  8.712895329337E-11  6.530748161458E-11  4.879864241306E-11
  3.634800717389E-11  2.698764647030E-11  1.997304233970E-11  1.473334218885E-11
  1.083225784413E-11  7.937430894273E-12  5.796509462717E-12  4.218527727309E-12
  3.059461191419E-12  2.211059129510E-12  1.592240210545E-12  1.142485934815E-12
  8.167857807925E-13  5.817833098447E-13  4.128484359598E-13  2.918613576635E-13
  2.055413256357E-13  1.441909804355E-13  1.007564746931E-13  7.012664340242E-14
  4.861243778431E-14  3.356176535212E-14  2.307564096806E-14  1.579983689946E-14
  1.077256942650E-14  7.313606950237E-15  4.943869885390E-15  3.327382769587E-15
  2.229542485598E-15  1.487245515370E-15  9.875973137030E-16  6.528051286507E-16
  4.295062289053E-16  2.812633625032E-16  1.833115791564E-16  1.188980200561E-16
  7.674356890843E-17  4.929085610086E-17  3.150081427998E-17  2.003004799706E-17
  1.267127798288E-17  7.974623293505E-18  4.991407983801E-18  3.108443642343E-18
  1.925443807985E-18  1.186201487305E-18  7.267705653820E-19  4.428111606857E-19
  2.682828219866E-19  1.616182996470E-19  9.680133439087E-20  5.764139467181E-20
  3.412073225071E-20  2.007706877612E-20  1.174210962393E-20  0.000000000000E+00
  0.000000000000E+00  0.000000000000E+00  0.000000000000E+00  0.000000000000E+00
  0.000000000000E+00  0.000000000000E+00  0.000000000000E+00  0.000000000000E+00
  0.000000000000E+00  0.000000000000E+00  0.000000000000E+00  0.000000000000E+00
  0.000000000000E+00  0.000000000000E+00  0.000000000000E+00  0.000000000000E+00
  0.000000000000E+00
</data>
</radfunc>
</valence-charge>
<pseudocore-charge matching-radius="0.980543374643"
 number-of-continuous-derivatives="4">
<annotation model-charge-form="Teter function with specified parameters" />
<radfunc>
<data npts="290">
  7.270264961836E+01  7.269928161317E+01  7.268921318387E+01  7.267241448474E+01
  7.264776273969E+01  7.261630407048E+01  7.257620392109E+01  7.253027683003E+01
  7.247862528675E+01  7.241837607653E+01  7.235044505380E+01  7.227658478997E+01
  7.218728714797E+01  7.209398600522E+01  7.200074072606E+01  7.189328584091E+01
  7.176948084026E+01  7.165205980102E+01  7.151997800616E+01  7.137143568274E+01
  7.120442037676E+01  7.105600544635E+01  7.089306432295E+01  7.071421204452E+01
  7.051793932845E+01  7.030260305393E+01  7.006641637884E+01  6.987443190143E+01
  6.966875188242E+01  6.944844298740E+01  6.921251498873E+01  6.895991835448E+01
  6.868954191593E+01  6.840021065388E+01  6.809068365163E+01  6.775965227046E+01
  6.740573861261E+01  6.702749434711E+01  6.676106707213E+01  6.648268449114E+01
  6.619186470432E+01  6.588811186739E+01  6.557091637663E+01  6.523975513567E+01
  6.489409191351E+01  6.453337780367E+01  6.415705179514E+01  6.376454146688E+01
  6.335526381772E+01  6.292862624510E+01  6.248402768608E+01  6.202085993537E+01
  6.153850915557E+01  6.103635759564E+01  6.051378553399E+01  5.997017346366E+01
  5.940490453677E+01  5.881736728645E+01  5.820695864416E+01  5.757308727032E+01
  5.691517721612E+01  5.623267193350E+01  5.552503864961E+01  5.479177312057E+01
  5.403240477781E+01  5.324650227779E+01  5.243367946314E+01  5.201706618004E+01
  5.159360173967E+01  5.116325348904E+01  5.072599286955E+01  5.028179565165E+01
  4.983064217561E+01  4.937251759833E+01  4.890741214590E+01  4.843532137183E+01
  4.795624642051E+01  4.747019429584E+01  4.697717813448E+01  4.647721748345E+01
  4.597033858162E+01  4.545657464472E+01  4.493596615313E+01  4.440856114208E+01
  4.387441549354E+01  4.333359322915E+01  4.278616680326E+01  4.223221739563E+01
  4.167183520243E+01  4.110511972506E+01  4.053218005538E+01  3.995313515649E+01
  3.936811413783E+01  3.877725652327E+01  3.818071251099E+01  3.757864322368E+01
  3.697122094757E+01  3.635862935879E+01  3.574106373529E+01  3.511873115284E+01
  3.449185066298E+01  3.386065345142E+01  3.322538297462E+01  3.258629507280E+01
  3.194365805710E+01  3.129775276892E+01  3.064887260913E+01  2.999732353500E+01
  2.934342402256E+01  2.868750499202E+01  2.802990969406E+01  2.737099355454E+01
  2.671112397545E+01  2.605068008962E+01  2.539005246713E+01  2.472964277108E+01
  2.406986336068E+01  2.341113683954E+01  2.275389554733E+01  2.209858099299E+01
  2.144564322792E+01  2.079554015765E+01  2.014873679089E+01  1.950570442499E+01
  1.886691976714E+01  1.823286399088E+01  1.760402172811E+01  1.698087999671E+01
  1.636392706484E+01  1.575365125286E+01  1.515053967475E+01  1.455507692128E+01
  1.396774368743E+01  1.338901534774E+01  1.281936048317E+01  1.225923936427E+01
  1.170910239570E+01  1.116938852801E+01  1.064052364318E+01  1.012291892118E+01
  9.616969195418E+00  9.123051305585E+00  8.641522457293E+00  8.172718598269E+00
  7.716952821675E+00  7.274513807627E+00  6.845664314542E+00  6.430639732372E+00
  6.029646710216E+00  5.642861871085E+00  5.270430626800E+00  4.912466106116E+00
  4.569048209136E+00  4.240222800898E+00  3.926001056743E+00  3.626358971571E+00
  3.341237044481E+00  3.070540149456E+00  2.814137601776E+00  2.571863428613E+00
  2.343516850938E+00  2.128862982220E+00  1.927633747694E+00  1.739529025973E+00
  1.564218012676E+00  1.401340803453E+00  1.250510191350E+00  1.111313670917E+00
  9.833156388076E-01  8.660597779501E-01  7.590716096066E-01  6.618611949800E-01
  5.739259653625E-01  4.947536573172E-01  4.238253270247E-01  3.606184158000E-01
  3.046098369306E-01  2.552790524735E-01  2.121111075162E-01  1.745995887255E-01
  1.422494738107E-01  1.145798388669E-01  9.112639147092E-02  7.144379890216E-02
  5.510778296965E-02  4.171695564542E-02  3.089437301916E-02  2.228878897351E-02
  1.557559438632E-02  1.045743253432E-02  6.664486621477E-03  3.954440888276E-03
  2.112122462562E-03  9.488368614003E-04  3.014157082902E-04  3.100064378785E-05
  2.159242851127E-05  1.783987138058E-04  4.260177402186E-04  7.064981811128E-04
  9.773173583182E-04  1.209321020932E-03  1.384667727334E-03  1.494819567247E-03
  1.538618505732E-03  1.520484065405E-03  1.448763470487E-03  1.334259882891E-03
  1.188958133468E-03  1.024960595192E-03  8.536387947853E-04  6.849992733355E-04
  5.272553561685E-04  3.865901496606E-04  2.670905083442E-04  1.708271443408E-04
  9.805267878884E-05  4.748740587788E-05  1.666193641354E-05  2.286721234176E-06
  6.206620441742E-07  7.814459830849E-06  2.020881956918E-05  3.457285332762E-05
  4.827368352671E-05  5.937399612147E-05  6.665977457558E-05  6.960532076384E-05
  6.828664016952E-05  6.325710130339E-05  5.540082154740E-05  4.577942909873E-05
  3.548675291205E-05  2.552375177259E-05  1.670285451962E-05  9.587163843661E-06
  4.466040207753E-06  1.364808164752E-06  8.307054396632E-08  2.536753529468E-07
  1.412966272173E-06  3.072659500157E-06  4.784503309561E-06  6.190645863351E-06
  7.055108902711E-06  7.274609316067E-06  6.869818386733E-06  5.960638155365E-06
  4.730898300255E-06  3.388822899331E-06  2.129596886690E-06  1.105427386045E-06
  4.068273364041E-07  5.673510840060E-08  0.000000000000E+00  0.000000000000E+00
  0.000000000000E+00  0.000000000000E+00  0.000000000000E+00  0.000000000000E+00
  0.000000000000E+00  0.000000000000E+00  0.000000000000E+00  0.000000000000E+00
  0.000000000000E+00  0.000000000000E+00  0.000000000000E+00  0.000000000000E+00
  0.000000000000E+00  0.000000000000E+00  0.000000000000E+00  0.000000000000E+00
  0.000000000000E+00  0.000000000000E+00  0.000000000000E+00  0.000000000000E+00
  0.000000000000E+00  0.000000000000E+00  0.000000000000E+00  0.000000000000E+00
  0.000000000000E+00  0.000000000000E+00  0.000000000000E+00  0.000000000000E+00
  0.000000000000E+00  0.000000000000E+00  0.000000000000E+00  0.000000000000E+00
  0.000000000000E+00  0.000000000000E+00
</data>
</radfunc>
</pseudocore-charge>
<semilocal-potentials set="lj">
<slps n="6" l="s" j="0.5" rc="2.31453477274" eref="-0.619659177509">
<radfunc>
<data npts="290">
  7.482514978105E+00  7.478440892383E+00  7.466269280670E+00  7.445986805343E+00
  7.416279797675E+00  7.378468313718E+00  7.330429420643E+00  7.275627973289E+00
  7.214272280500E+00  7.143070629721E+00  7.063260924434E+00  6.977045606942E+00
  6.873582292974E+00  6.766372515290E+00  6.660126745244E+00  6.538791482466E+00
  6.400435447598E+00  6.270618096181E+00  6.126199914707E+00  5.965782720819E+00
  5.787894996798E+00  5.631977603442E+00  5.463092599502E+00  5.280422507394E+00
  5.083147501353E+00  4.870456033219E+00  4.641557368030E+00  4.458791191042E+00
  4.266182115134E+00  4.063450448549E+00  3.850341839214E+00  3.626632228129E+00
  3.392133061298E+00  3.146696706775E+00  2.890222009947E+00  2.622659906437E+00
  2.344018998427E+00  2.054370987390E+00  1.855223420912E+00  1.651303841964E+00
  1.442686593648E+00  1.229461555619E+00  1.011734603730E+00  7.896279998563E-01
  5.632807042766E-01  3.328486034057E-01  9.850464619521E-02 -1.395611167769E-01
 -3.811415966821E-01 -6.260128364728E-01 -8.739342906668E-01 -1.124649216782E+00
 -1.377885179028E+00 -1.633354663485E+00 -1.890755802622E+00 -2.149773205545E+00
 -2.410078888991E+00 -2.671333302714E+00 -2.933186441626E+00 -3.195279035908E+00
 -3.457243809285E+00 -3.718706794821E+00 -3.979288696977E+00 -4.238606288236E+00
 -4.496273828494E+00 -4.751904495488E+00 -5.005111814931E+00 -5.130686390887E+00
 -5.255511079672E+00 -5.379538298466E+00 -5.502720748163E+00 -5.625011455348E+00
 -5.746363813671E+00 -5.866731624550E+00 -5.986069137190E+00 -6.104331087895E+00
 -6.221472738648E+00 -6.337449914961E+00 -6.452219042988E+00 -6.565737185930E+00
 -6.677962079730E+00 -6.788852168107E+00 -6.898366636954E+00 -7.006465448167E+00
 -7.113109372948E+00 -7.218260024653E+00 -7.321879891276E+00 -7.423932367644E+00
 -7.524381787424E+00 -7.623193455048E+00 -7.720333677671E+00 -7.815769797284E+00
 -7.909470223110E+00 -8.001404464420E+00 -8.091543163910E+00 -8.179858131788E+00
 -8.266322380712E+00 -8.350910161740E+00 -8.433597001436E+00 -8.514359740276E+00
 -8.593176572501E+00 -8.670027087554E+00 -8.744892313210E+00 -8.817754760520E+00
 -8.888598470637E+00 -8.957409063601E+00 -9.024173789099E+00 -9.088881579198E+00
 -9.151523102991E+00 -9.212090823057E+00 -9.270579053578E+00 -9.326984019869E+00
 -9.381303919033E+00 -9.433538981352E+00 -9.483691531941E+00 -9.531766052103E+00
 -9.577769239716E+00 -9.621710067885E+00 -9.663599840978E+00 -9.703452247071E+00
 -9.741283405706E+00 -9.777111909779E+00 -9.810958860271E+00 -9.842847892455E+00
 -9.872805192125E+00 -9.900859500372E+00 -9.927042105327E+00 -9.951386819330E+00
 -9.973929939941E+00 -9.994710193237E+00 -1.001376865788E+01 -1.003114866850E+01
 -1.004689569701E+01 -1.006105721062E+01 -1.007368250530E+01 -1.008482251374E+01
 -1.009452958698E+01 -1.010285724887E+01 -1.010985992287E+01 -1.011559263087E+01
 -1.012011066382E+01 -1.012346922407E+01 -1.012572303982E+01 -1.012692595198E+01
 -1.012713047404E+01 -1.012638732598E+01 -1.012474494330E+01 -1.012224896265E+01
 -1.011894168596E+01 -1.011486152536E+01 -1.011004243172E+01 -1.010451331033E+01