<?xml version="1.0" encoding="UTF-8" ?>
<psml version="1.1" energy_unit="hartree" length_unit="bohr"
 uuid="4020af70-53b5-11e8-4cb2-1fc8cefa71f6"
 xmlns="http://esl.cecam.org/PSML/ns/1.1">
<provenance creator="ONCVPSP-3.3.0+psml-3.3.0-73 (fully-relativistic)"
 date="2018-05-09">
<annotation action="semilocal-pseudopotential-generation"
 action-cont="projectors-generation" />
<input-file name="oncvpsp-input">
<![CDATA[# atsym z nc nv iexc psfile
Po 84 10 5 -116133 upf
# n l f
1 0 2.0
2 0 2.0
2 1 6.0
3 0 2.0
3 1 6.0
3 2 10.0
4 0 2.0
4 1 6.0
4 2 10.0
4 3 14.0
5 0 2.0
5 1 6.0
5 2 10.0
6 0 2.0
6 1 4.0
# lmax
2
# l rc ep ncon nbas qcut
0 1.4 0.0 4 8 9.0
1 1.5 0.0 4 8 8.4
2 1.4 0.0 4 8 9.0
# lloc lpopt rc5 dvloc0
4 5 1.3 0.0
# l nproj debl
0 2 1.0
1 2 1.0
2 2 2.5
# icmod fcfact rcfact
3 6.0 1.34
# epsh1 epsh2 depsh
-12.0 12.0 0.02
# rlmax drl
6.0 0.01
 0
]]>
</input-file>
</provenance>
<pseudo-atom-spec atomic-label="Po" atomic-number="84" z-pseudo="24"
 flavor="Hamann&apos;s oncvpsp" relativity="dirac" spin-dft="no"
 core-corrections="yes">
<annotation pseudo-energy="-241.266624060" />
<exchange-correlation>
<annotation oncvpsp-xc-code="-116133" oncvpsp-xc-type="libxc-interface" />
<libxc-info number-of-functionals="2">
<functional name="Perdew, Burke &amp; Ernzerhof SOL (GGA)" type="exchange"
 id="116" />
<functional name="Perdew, Burke &amp; Ernzerhof SOL (GGA)" type="correlation"
 id="133" />
</libxc-info>
</exchange-correlation>
<valence-configuration total-valence-charge="24">
<shell n="5" l="s" occupation="2" />
<shell n="5" l="p" occupation="6" />
<shell n="5" l="d" occupation="10" />
<shell n="6" l="s" occupation="2" />
<shell n="6" l="p" occupation="4" />
</valence-configuration>
</pseudo-atom-spec>
<grid npts="457">
<annotation type="sampled from oncvpsp log grid"
 recipe="r(i:1..N) = r1*exp(a*(i-1)) + r=0; resampled"
 recipe-cont="r1: scale; a: step" scale="0.595238095238E-05"
 step="0.119285708653E-01" delta="0.500000000000E-02" rmax="44.0605889801" />
<grid-data>
  0.000000000000E+00  5.031300802255E-03  1.004962851020E-02  1.507604528350E-02
  2.031422441398E-02  2.548179300022E-02  3.084027084741E-02  3.601345981203E-02
  4.106298189261E-02  4.626532407434E-02  5.150865635998E-02  5.666623015056E-02
  6.234023300928E-02  6.776914535508E-02  7.279726845657E-02  7.819845251068E-02
  8.400037672722E-02  8.916282012991E-02  9.464253379881E-02  1.004590163345E-01
  1.066329646705E-01  1.118442171143E-01  1.173101483258E-01  1.230432046939E-01
  1.290564408741E-01  1.353635495152E-01  1.419788924385E-01  1.471517127873E-01
  1.525129982658E-01  1.580696153610E-01  1.638286807322E-01  1.697975703246E-01
  1.759839288168E-01  1.823956794117E-01  1.890410339838E-01  1.959285035968E-01
  2.030669094043E-01  2.104653939473E-01  2.155468704188E-01  2.207510340582E-01
  2.260808470245E-01  2.315393429950E-01  2.371296288923E-01  2.428548866523E-01
  2.487183750356E-01  2.547234314824E-01  2.608734740122E-01  2.671720031687E-01
  2.736226040132E-01  2.802289481645E-01  2.869947958890E-01  2.939239982409E-01
  3.010204992545E-01  3.082883381885E-01  3.157316518257E-01  3.233546768274E-01
  3.311617521447E-01  3.391573214885E-01  3.473459358585E-01  3.557322561339E-01
  3.643210557260E-01  3.731172232954E-01  3.821257655346E-01  3.913518100177E-01
  4.008006081188E-01  4.104775380012E-01  4.203881076787E-01  4.254327649708E-01
  4.305379581505E-01  4.357044136483E-01  4.409328666121E-01  4.462240610114E-01
  4.515787497436E-01  4.569976947405E-01  4.624816670774E-01  4.680314470823E-01
  4.736478244473E-01  4.793315983407E-01  4.850835775207E-01  4.909045804510E-01
  4.967954354164E-01  5.027569806414E-01  5.087900644091E-01  5.148955451820E-01
  5.210742917242E-01  5.273271832249E-01  5.336551094236E-01  5.400589707367E-01
  5.465396783855E-01  5.530981545261E-01  5.597353323804E-01  5.664521563690E-01
  5.732495822454E-01  5.801285772324E-01  5.870901201592E-01  5.941352016011E-01
  6.012648240203E-01  6.084800019085E-01  6.157817619314E-01  6.231711430746E-01
  6.306491967915E-01  6.382169871530E-01  6.458755909988E-01  6.536260980908E-01
  6.614696112679E-01  6.694072466031E-01  6.774401335624E-01  6.855694151651E-01
  6.937962481471E-01  7.021218031249E-01  7.105472647624E-01  7.190738319395E-01
  7.277027179228E-01  7.364351505379E-01  7.452723723443E-01  7.542156408125E-01
  7.632662285022E-01  7.724254232442E-01  7.816945283232E-01  7.910748626630E-01
  8.005677610150E-01  8.101745741472E-01  8.198966690369E-01  8.297354290654E-01
  8.396922542142E-01  8.497685612647E-01  8.599657839999E-01  8.702853734079E-01
  8.807287978888E-01  8.912975434635E-01  9.019931139850E-01  9.128170313529E-01
  9.237708357291E-01  9.348560857578E-01  9.460743587869E-01  9.574272510924E-01
  9.689163781055E-01  9.805433746428E-01  9.923098951385E-01  1.004217613880E+00
  1.016268225247E+00  1.028463443950E+00  1.040805005277E+00  1.053294665340E+00
  1.065934201324E+00  1.078725411740E+00  1.091670116681E+00  1.104770158081E+00
  1.118027399978E+00  1.131443728778E+00  1.145021053523E+00  1.158761306166E+00
  1.172666441840E+00  1.186738439142E+00  1.200979300412E+00  1.215391052016E+00
  1.229975744641E+00  1.244735453576E+00  1.259672279019E+00  1.274788346367E+00
  1.290085806524E+00  1.305566836202E+00  1.321233638237E+00  1.337088441895E+00
  1.353133503198E+00  1.369371105237E+00  1.385803558499E+00  1.402433201201E+00
  1.419262399616E+00  1.436293548411E+00  1.453529070992E+00  1.470971419844E+00
  1.488623076882E+00  1.506486553805E+00  1.524564392450E+00  1.542859165160E+00
  1.561373475142E+00  1.580109956843E+00  1.599071276326E+00  1.618260131641E+00
  1.637679253221E+00  1.657331404260E+00  1.677219381111E+00  1.697346013684E+00
  1.717714165848E+00  1.738326735839E+00  1.759186656669E+00  1.780296896549E+00
  1.801660459307E+00  1.823280384819E+00  1.845159749437E+00  1.867301666430E+00
  1.889709286427E+00  1.912385797864E+00  1.935334427439E+00  1.958558440568E+00
  1.982061141855E+00  2.005845875557E+00  2.029916026064E+00  2.054275018377E+00
  2.078926318597E+00  2.103873434420E+00  2.129119915633E+00  2.154669354621E+00
  2.180525386876E+00  2.206691691519E+00  2.233171991817E+00  2.259970055719E+00
  2.287089696387E+00  2.314534772744E+00  2.342309190017E+00  2.370416900297E+00
  2.398861903101E+00  2.427648245938E+00  2.456780024889E+00  2.486261385188E+00
  2.516096521810E+00  2.546289680072E+00  2.576845156233E+00  2.607767298108E+00
  2.639060505685E+00  2.670729231753E+00  2.702777982534E+00  2.735211318325E+00
  2.768033854144E+00  2.801250260394E+00  2.834865263519E+00  2.868883646681E+00
  2.903310250441E+00  2.938149973447E+00  2.973407773128E+00  3.009088666406E+00
  3.045197730402E+00  3.081740103167E+00  3.118720984405E+00  3.156145636218E+00
  3.194019383853E+00  3.232347616459E+00  3.271135787856E+00  3.310389417311E+00
  3.350114090318E+00  3.390315459402E+00  3.430999244915E+00  3.472171235854E+00
  3.513837290684E+00  3.556003338173E+00  3.598675378231E+00  3.641859482769E+00
  3.685561796563E+00  3.729788538121E+00  3.774546000579E+00  3.819840552586E+00
  3.865678639217E+00  3.912066782887E+00  3.959011584282E+00  4.006519723293E+00
  4.054597959973E+00  4.103253135493E+00  4.152492173119E+00  4.202322079196E+00
  4.252749944146E+00  4.303782943476E+00  4.355428338798E+00  4.407693478863E+00
  4.460585800610E+00  4.514112830217E+00  4.568282184180E+00  4.623101570390E+00
  4.678578789234E+00  4.734721734705E+00  4.791538395522E+00  4.849036856268E+00
  4.907225298543E+00  4.966112002126E+00  5.025705346151E+00  5.086013810305E+00
  5.147045976029E+00  5.208810527741E+00  5.271316254074E+00  5.334572049123E+00
  5.398586913712E+00  5.463369956677E+00  5.528930396157E+00  5.595277560911E+00
  5.662420891642E+00  5.730369942342E+00  5.799134381650E+00  5.868723994229E+00
  5.939148682160E+00  6.010418466346E+00  6.082543487942E+00  6.155534009798E+00
  6.229400417915E+00  6.304153222930E+00  6.379803061605E+00  6.456360698345E+00
  6.533837026725E+00  6.612243071045E+00  6.691589987898E+00  6.771889067753E+00
  6.853151736566E+00  6.935389557405E+00  7.018614232093E+00  7.102837602878E+00
  7.188071654113E+00  7.274328513962E+00  7.361620456130E+00  7.449959901603E+00
  7.539359420423E+00  7.629831733468E+00  7.721389714269E+00  7.814046390841E+00
  7.907814947531E+00  8.002708726901E+00  8.098741231624E+00  8.195926126403E+00
  8.294277239920E+00  8.393808566799E+00  8.494534269601E+00  8.596468680836E+00
  8.699626305006E+00  8.804021820666E+00  8.909670082514E+00  9.016586123504E+00
  9.124785156986E+00  9.234282578870E+00  9.345093969817E+00  9.457235097454E+00
  9.570721918624E+00  9.685570581647E+00  9.801797428627E+00  9.919418997771E+00
  1.003845202574E+01  1.015891345005E+01  1.028082041145E+01  1.040419025639E+01
  1.052904053947E+01  1.065538902594E+01  1.078325369425E+01  1.091265273858E+01
  1.104360457145E+01  1.117612782630E+01  1.131024136022E+01  1.144596425654E+01
  1.158331582762E+01  1.172231561755E+01  1.186298340496E+01  1.200533920582E+01
  1.214940327629E+01  1.229519611561E+01  1.244273846900E+01  1.259205133062E+01
  1.274315594659E+01  1.289607381795E+01  1.305082670376E+01  1.320743662421E+01
  1.336592586370E+01  1.352631697407E+01  1.368863277775E+01  1.385289637109E+01
  1.401913112754E+01  1.418736070107E+01  1.435760902948E+01  1.452990033784E+01
  1.470425914189E+01  1.488071025159E+01  1.505927877461E+01  1.523999011991E+01
  1.542287000135E+01  1.560794444136E+01  1.579523977466E+01  1.598478265196E+01
  1.617660004378E+01  1.637071924430E+01  1.656716787524E+01  1.676597388974E+01
  1.696716557642E+01  1.717077156333E+01  1.737682082209E+01  1.758534267196E+01
  1.779636678402E+01  1.800992318543E+01  1.822604226365E+01  1.844475477082E+01
  1.866609182807E+01  1.889008493001E+01  1.911676594917E+01  1.934616714056E+01
  1.957832114624E+01  1.981326100000E+01  2.005102013200E+01  2.029163237358E+01
  2.053513196206E+01  2.078155354561E+01  2.103093218816E+01  2.128330337441E+01
  2.153870301491E+01  2.179716745109E+01  2.205873346050E+01  2.232343826202E+01
  2.259131952117E+01  2.286241535542E+01  2.313676433969E+01  2.341440551176E+01
  2.369537837791E+01  2.397972291844E+01  2.426747959346E+01  2.455868934858E+01
  2.485339362077E+01  2.515163434422E+01  2.545345395635E+01  2.575889540382E+01
  2.606800214867E+01  2.638081817445E+01  2.669738799255E+01  2.701775664846E+01
  2.734196972824E+01  2.767007336498E+01  2.800211424536E+01  2.833813961630E+01
  2.867819729170E+01  2.902233565920E+01  2.937060368711E+01  2.972305093135E+01
  3.007972754253E+01  3.044068427304E+01  3.080597248431E+01  3.117564415413E+01
  3.154975188398E+01  3.192834890658E+01  3.231148909346E+01  3.269922696258E+01
  3.309161768614E+01  3.348871709837E+01  3.389058170355E+01  3.429726868399E+01
  3.470883590820E+01  3.512534193910E+01  3.554684604237E+01  3.597340819488E+01
  3.640508909321E+01  3.684195016233E+01  3.728405356428E+01  3.773146220705E+01
  3.818423975354E+01  3.864245063058E+01  3.910616003815E+01  3.957543395860E+01
  4.005033916611E+01  4.053094323610E+01  4.101731455493E+01  4.150952232959E+01
  4.200763659755E+01  4.251172823672E+01  4.302186897556E+01  4.353813140327E+01
  4.406058898011E+01
</grid-data>
</grid>
<valence-charge total-charge="24" is-unscreening-charge="yes"
 rescaled-to-z-pseudo="no">
<radfunc>
<data npts="457">
  7.642671083704E+00  7.646711585997E+00  7.658789798825E+00  7.678939808195E+00
  7.708505186379E+00  7.746226722956E+00  7.794297792290E+00  7.849336990180E+00
  7.911214458252E+00  7.983362156396E+00  8.064670135702E+00  8.153028015410E+00
  8.259787306070E+00  8.371254646878E+00  8.482574149154E+00  8.610755527377E+00
  8.758303033811E+00  8.898103748950E+00  9.055195348817E+00  9.231652783316E+00
  9.429781787392E+00  9.605597702575E+00  9.798347661658E+00  1.000958236215E+01
  1.024097612489E+01  1.049433228417E+01  1.077158756259E+01  1.099645470777E+01
  1.123685360984E+01  1.149375265658E+01  1.176816245169E+01  1.206113415724E+01
  1.237375694760E+01  1.270715439184E+01  1.306247955288E+01  1.344090855888E+01
  1.384363236655E+01  1.427184639703E+01  1.457207064011E+01  1.488449842674E+01
  1.520946911815E+01  1.554731218842E+01  1.589834412104E+01  1.626286492132E+01
  1.664115421100E+01  1.703346687069E+01  1.744002819444E+01  1.786102852051E+01
  1.829661730267E+01  1.874689658687E+01  1.921191386013E+01  1.969165424108E+01
  2.018603198593E+01  2.069488128890E+01  2.121794636402E+01  2.175487080450E+01
  2.230518622807E+01  2.286830023147E+01  2.344348369529E+01  2.402985750206E+01
  2.462637875567E+01  2.523182662026E+01  2.584478793049E+01  2.646364276458E+01
  2.708655021487E+01  2.771143463959E+01  2.833597273266E+01  2.864731523524E+01
  2.895758180569E+01  2.926640742891E+01  2.957340973709E+01  2.987818882381E+01
  3.018032710618E+01  3.047938923998E+01  3.077492209338E+01  3.106645478463E+01
  3.135349878972E+01  3.163554812580E+01  3.191207961655E+01  3.218255324585E+01
  3.244641260590E+01  3.270308544638E+01  3.295198433084E+01  3.319250740684E+01
  3.342403929603E+01  3.364595211018E+01  3.385760659905E+01  3.405835343561E+01
  3.424753464365E+01  3.442448517251E+01  3.458853462277E+01  3.473900912630E+01
  3.487523338319E+01  3.499653285697E+01  3.510223612874E+01  3.519167740944E+01
  3.526419920823E+01  3.531915515358E+01  3.535591296198E+01  3.537385754746E+01
  3.537239426341E+01  3.535095226609E+01  3.530898798714E+01  3.524598870044E+01
  3.516147616599E+01  3.505501033172E+01  3.492619307121E+01  3.477467193330E+01
  3.460014387702E+01  3.440235896291E+01  3.418112396970E+01  3.393630590301E+01
  3.366783536093E+01  3.337570971936E+01  3.305999609894E+01  3.272083407376E+01
  3.235843808168E+01  3.197309949547E+01  3.156518831448E+01  3.113515443692E+01
  3.068352847442E+01  3.021092207240E+01  2.971802770255E+01  2.920561789693E+01
  2.867454389752E+01  2.812573369986E+01  2.756018947499E+01  2.697898436036E+01
  2.638325861729E+01  2.577421516026E+01  2.515311447151E+01  2.452126892289E+01
  2.388003653595E+01  2.323081422024E+01  2.257503053870E+01  2.191413805798E+01
  2.124960534984E+01  2.058290871750E+01  1.991552372789E+01  1.924891663628E+01
  1.858453579482E+01  1.792380313907E+01  1.726810584858E+01  1.661878827695E+01
  1.597714424474E+01  1.534440978446E+01  1.472175642091E+01  1.411028506213E+01
  1.351102056687E+01  1.292490704294E+01  1.235280391897E+01  1.179548281818E+01
  1.125362524929E+01  1.072782111526E+01  1.021856802689E+01  9.726271394966E+00
  9.251245262974E+00  8.793713831409E+00  8.353813616735E+00  7.931596181340E+00
  7.527031367186E+00  7.140010964427E+00  6.770352747679E+00  6.417804817067E+00
  6.082050189613E+00  5.762711595868E+00  5.459356443391E+00  5.171501917648E+00
  4.898621577867E+00  4.640157560763E+00  4.395535802384E+00  4.164171654643E+00
  3.945473128703E+00  3.738845462598E+00  3.543695605923E+00  3.359438761164E+00
  3.185505452328E+00  3.021342930239E+00  2.866416540808E+00  2.720210653057E+00
  2.582229428009E+00  2.451997361790E+00  2.329059639281E+00  2.212982314347E+00
  2.103352334300E+00  1.999777425553E+00  1.901885856621E+00  1.809326093866E+00
  1.721766364508E+00  1.638894140580E+00  1.560415556563E+00  1.486054772568E+00
  1.415553293997E+00  1.348669257745E+00  1.285176694094E+00  1.224864772614E+00
  1.167537039539E+00  1.113010653303E+00  1.061115624119E+00  1.011694062802E+00
  9.645994433095E-01  9.196958828382E-01  8.768574427148E-01  8.359674527518E-01
  7.969178612224E-01  7.596086121342E-01  7.239470510511E-01  6.898473603245E-01
  6.572300242436E-01  6.260213243089E-01  5.961528645585E-01  5.675611266404E-01
  5.401870541193E-01  5.139756653343E-01  4.888756939775E-01  4.648392564434E-01
  4.418215449056E-01  4.197805450011E-01  3.986767769683E-01  3.784730589281E-01
  3.591342912734E-01  3.406272607263E-01  3.229204629194E-01  3.059839422589E-01
  2.897891478623E-01  2.743088043956E-01  2.595167966702E-01  2.453880668988E-01
  2.318985235548E-01  2.190249608275E-01  2.067449877126E-01  1.950369658324E-01
  1.838799551291E-01  1.732536666271E-01  1.631384215181E-01  1.535151158513E-01
  1.443651902150E-01  1.356706037737E-01  1.274138121290E-01  1.195777484929E-01
  1.121458077149E-01  1.051018327424E-01  9.843010313854E-02  9.211532531705E-02
  8.614262419223E-02  8.049753597550E-02  7.516600188335E-02  7.013436254837E-02
  6.538935297268E-02  6.091809784492E-02  5.670810712192E-02  5.274727176075E-02
  4.902385952113E-02  4.552651077426E-02  4.224423427041E-02  3.916640283121E-02
  3.628274894431E-02  3.358336024676E-02  3.105867489043E-02  2.869947678722E-02
  2.649689073413E-02  2.444237741886E-02  2.252772830589E-02  2.074506040065E-02
  1.908681088700E-02  1.754573163034E-02  1.611488353560E-02  1.478763074773E-02
  1.355763468047E-02  1.241884785931E-02  1.136550756522E-02  1.039212926793E-02
  9.493499840481E-03  8.664670551128E-03  7.900949832981E-03  7.197895837193E-03
  6.551308780618E-03  5.957223104080E-03  5.411899462189E-03  4.911816569924E-03
  4.453662934811E-03  4.034328506353E-03  3.650896276323E-03  3.300633864724E-03
  2.980985126497E-03  2.689561813656E-03  2.424135326401E-03  2.182628585037E-03
  1.963108052335E-03  1.763775933374E-03  1.582962577006E-03  1.419119100033E-03
  1.270810251960E-03  1.136707535021E-03  1.015582590962E-03  9.063008630231E-04
  8.078155386384E-04  7.191617756400E-04  6.394512122637E-04  5.678667590009E-04
  5.036576683512E-04  4.461348768233E-04  3.946666120864E-04  3.486742570067E-04
  3.076284613882E-04  2.710454915657E-04  2.384838075449E-04  2.095408571351E-04
  1.838500764331E-04  1.610780860882E-04  1.409220729561E-04  1.231073470305E-04
  1.073850638851E-04  9.353010325357E-05  8.133909479745E-05  7.062858254599E-05
  6.123331992781E-05  5.300468773789E-05  4.580922779145E-05  3.952728540115E-05
  3.405175417563E-05  2.928691697301E-05  2.514737715464E-05  2.155707457246E-05
  1.844838099096E-05  1.576126989366E-05  1.344255585770E-05  1.144519890026E-05
  9.727669410441E-06  8.253369481407E-06  6.990106652127E-06  5.909616257365E-06
  4.987128769722E-06  4.200978699278E-06  3.532251795225E-06  2.964467469982E-06
  2.483293539652E-06  2.076290545126E-06  1.732683085319E-06  1.443155757605E-06
  1.199671460010E-06  9.953099646188E-07  8.241248216308E-07  6.810167979803E-07
  5.616221931198E-07  4.622145071301E-07  3.796180624524E-07  3.111323000859E-07
  2.544655839099E-07  2.076774528208E-07  1.691283596147E-07  1.374360280775E-07
  1.114376456593E-07  9.015718859259E-08  7.277724955839E-08  5.861480524979E-08
  4.710042269696E-08  3.776045928747E-08  3.020186233990E-08  2.409922018065E-08
  1.918375824817E-08  1.523401112146E-08  1.206793485355E-08  9.536253889698E-09
  7.516863465001E-09  5.910131982242E-09  4.634968755484E-09  3.625540904758E-09
  2.828539363426E-09  2.200908125313E-09  1.707963229209E-09  1.321838746487E-09
  1.020206381606E-09  7.852233784895E-10  6.026703964186E-10  4.612470116546E-10
  3.519976367020E-10  2.678450367279E-10  2.032123594427E-10  1.537177672725E-10
  1.159284456514E-10  8.716302648163E-11  6.533337080592E-11  4.881825169483E-11
  3.636281277584E-11  2.699878929008E-11  1.998140129607E-11  1.473959218810E-11
  1.083691543834E-11  7.940890126414E-12  5.799069914031E-12  4.220416389331E-12
  3.060849464211E-12  2.212075986598E-12  1.592982359440E-12  1.143025631103E-12
  8.171768162066E-13  5.820655844461E-13  4.130514364605E-13  2.920067937950E-13
  2.056451208865E-13  1.442647695736E-13  1.008087259517E-13  7.016349614133E-14
  4.863832531115E-14  3.357987616579E-14  2.308825896878E-14  1.580859130455E-14
  1.077861760075E-14  7.317767601504E-15  4.946719690987E-15  3.329326174598E-15
  2.230861904072E-15  1.488137278852E-15  9.881972997232E-16  6.532069500565E-16
  4.297740849037E-16  2.814410765060E-16  1.834289253998E-16  1.189751315316E-16
  7.679399389946E-17  4.932366744735E-17  3.152205786414E-17  2.004373255730E-17
  1.268004812643E-17  7.980214796101E-18  4.994953358778E-18  3.110680325131E-18
  1.926847297813E-18  1.187077375561E-18  7.273141839052E-19  4.431466796495E-19
  2.684887369714E-19  1.617439539080E-19  9.687756944378E-20  5.768737685986E-20
  3.414830311872E-20  2.009350131032E-20  1.175184421490E-20  0.000000000000E+00
  0.000000000000E+00  0.000000000000E+00  0.000000000000E+00  0.000000000000E+00
  0.000000000000E+00  0.000000000000E+00  0.000000000000E+00  0.000000000000E+00
  0.000000000000E+00  0.000000000000E+00  0.000000000000E+00  0.000000000000E+00
  0.000000000000E+00  0.000000000000E+00  0.000000000000E+00  0.000000000000E+00
  0.000000000000E+00
</data>
</radfunc>
</valence-charge>
<pseudocore-charge matching-radius="0.677440133562"
 number-of-continuous-derivatives="4">
<annotation model-charge-form="Teter function with specified parameters" />
<radfunc>
<data npts="290">
  2.228797457587E+02  2.228581148593E+02  2.227934568406E+02  2.226855984311E+02
  2.225273647212E+02  2.223255189358E+02  2.220683574888E+02  2.217740069688E+02
  2.214431962990E+02  2.210576259371E+02  2.206232896461E+02  2.201515176311E+02
  2.195818018122E+02  2.189873159537E+02  2.183939745044E+02  2.177111916925E+02
  2.169258161659E+02  2.161822226763E+02  2.153472814512E+02  2.144101775354E+02
  2.133589247860E+02  2.124268736039E+02  2.114058999372E+02  2.102880034800E+02
  2.090645654933E+02  2.077263229059E+02  2.062633466354E+02  2.050779007273E+02
  2.038116065167E+02  2.024595144495E+02  2.010164587935E+02  1.994770624556E+02
  1.978357448227E+02  1.960867331442E+02  1.942240780260E+02  1.922416736685E+02
  1.901332835418E+02  1.878925722463E+02  1.863220958439E+02  1.846880675261E+02
  1.829885911983E+02  1.812217829802E+02  1.793857799960E+02  1.774787500979E+02
  1.754989025774E+02  1.734444999184E+02  1.713138706431E+02  1.691054232985E+02
  1.668176616265E+02  1.644492009557E+02  1.619987858427E+02  1.594653089836E+02
  1.568478314021E+02  1.541456039080E+02  1.513580898021E+02  1.484849887832E+02
  1.455262619906E+02  1.424821580872E+02  1.393532402610E+02  1.361404139851E+02
  1.328449553410E+02  1.294685396664E+02  1.260132702425E+02  1.224817066873E+02
  1.188768926648E+02  1.152023824663E+02  1.114622659581E+02  1.095690355205E+02
  1.076611913294E+02  1.057394049167E+02  1.038043850134E+02  1.018568779679E+02
  9.989766809283E+01  9.792757793207E+01  9.594746844267E+01  9.395823908444E+01
  9.196082781054E+01  8.995621095201E+01  8.794540298926E+01  8.592945620338E+01
  8.390946020018E+01  8.188654129978E+01  7.986186178487E+01  7.783661900053E+01
  7.581204429901E+01  7.378940182286E+01  7.176998712026E+01  6.975512558661E+01
  6.774617072694E+01  6.574450223427E+01  6.375152387955E+01  6.176866120954E+01
  5.979735904961E+01  5.783907880970E+01  5.589529559202E+01  5.396749510076E+01
  5.205717035478E+01  5.016581820569E+01  4.829493566520E+01  4.644601604676E+01
  4.462054492844E+01  4.281999594539E+01  4.104582642212E+01  3.929947285658E+01
  3.758234627001E+01  3.589582743843E+01  3.424126202375E+01  3.261995562445E+01
  3.103316876802E+01  2.948211186932E+01  2.796794018108E+01  2.649174876514E+01
  2.505456751441E+01  2.365735625806E+01  2.230099998381E+01  2.098630421290E+01
  1.971399056486E+01  1.848469255030E+01  1.729895163080E+01  1.615721358584E+01
  1.505982522682E+01  1.400703149826E+01  1.299897300560E+01  1.203568400834E+01
  1.111709091562E+01  1.024301131943E+01  9.413153598187E+00  8.627117120301E+00
  7.884393073766E+00  7.184365943470E+00  6.526315653184E+00  5.909420383676E+00
  5.332760072487E+00  4.795320594318E+00  4.295998614004E+00  3.833607096576E+00
  3.406881451120E+00  3.014486277027E+00  2.655022672965E+00  2.327036060582E+00
  2.029024466633E+00  1.759447199185E+00  1.516733845808E+00  1.299293514463E+00
  1.105524231253E+00  9.338224035447E-01  7.825922522973E-01  6.502551140016E-01
  5.352585105081E-01  4.360848844390E-01  3.512598989140E-01  2.793602030952E-01
  2.190205696620E-01  1.689403167846E-01  1.278889355049E-01  9.471085359378E-02
  6.832927886071E-02  4.774907840480E-02  3.205866521747E-02  2.043087963925E-02
  1.212287013504E-02  6.474995339761E-03  2.908786949932E-03  9.240303728137E-04
  9.503664092110E-05  6.619449225259E-05  5.469052391548E-04  1.306014651833E-03
  2.165865148134E-03  2.996097741842E-03  3.707336157636E-03  4.244885057815E-03
  4.582570330682E-03  4.716841864463E-03  4.661248299844E-03  4.441379174786E-03
  4.090353034393E-03  3.644910988748E-03  3.142154489119E-03  2.616944479331E-03
  2.099957356263E-03  1.616372172811E-03  1.185144072761E-03  8.188018580728E-04
  5.236935751204E-04  3.005936679631E-04  1.455790264091E-04  5.107940592527E-05
  7.010251345302E-06  1.902722931472E-06  2.395627710247E-05  6.195285304327E-05
  1.059877294743E-04  1.479894662402E-04  1.820189667047E-04  2.043544999767E-04
  2.133844677840E-04  2.093418751530E-04  1.939231476424E-04  1.698386659376E-04
  1.403429939908E-04  1.087894115051E-04  7.824649219450E-05  5.120484588004E-05
  2.939073955680E-05  1.369124662275E-05  4.184002899015E-06  2.546639196294E-07
  7.776758958142E-07  4.331638051167E-06  9.419650752663E-06  1.466753807206E-05
  1.897825709721E-05  2.162838475338E-05  2.230129277777E-05  2.106035176821E-05
  1.827313754865E-05  1.450320470995E-05  1.038889215440E-05  6.528565535997E-06
  3.388836253557E-06  1.247183889190E-06  1.739291016531E-07  0.000000000000E+00
  0.000000000000E+00  0.000000000000E+00  0.000000000000E+00  0.000000000000E+00
  0.000000000000E+00  0.000000000000E+00  0.000000000000E+00  0.000000000000E+00
  0.000000000000E+00  0.000000000000E+00  0.000000000000E+00  0.000000000000E+00
  0.000000000000E+00  0.000000000000E+00  0.000000000000E+00  0.000000000000E+00
  0.000000000000E+00  0.000000000000E+00  0.000000000000E+00  0.000000000000E+00
  0.000000000000E+00  0.000000000000E+00  0.000000000000E+00  0.000000000000E+00
  0.000000000000E+00  0.000000000000E+00  0.000000000000E+00  0.000000000000E+00
  0.000000000000E+00  0.000000000000E+00  0.000000000000E+00  0.000000000000E+00
  0.000000000000E+00  0.000000000000E+00  0.000000000000E+00  0.000000000000E+00
  0.000000000000E+00  0.000000000000E+00  0.000000000000E+00  0.000000000000E+00
  0.000000000000E+00  0.000000000000E+00  0.000000000000E+00  0.000000000000E+00
  0.000000000000E+00  0.000000000000E+00  0.000000000000E+00  0.000000000000E+00
  0.000000000000E+00  0.000000000000E+00  0.000000000000E+00  0.000000000000E+00
  0.000000000000E+00  0.000000000000E+00  0.000000000000E+00  0.000000000000E+00
  0.000000000000E+00  0.000000000000E+00  0.000000000000E+00  0.000000000000E+00
  0.000000000000E+00  0.000000000000E+00  0.000000000000E+00  0.000000000000E+00
  0.000000000000E+00  0.000000000000E+00
</data>
</radfunc>
</pseudocore-charge>
<semilocal-potentials set="lj">
<slps n="5" l="s" j="0.5" rc="1.40243320120" eref="-6.29233601057">
<radfunc>
<data npts="290">
 -2.330121818925E+01 -2.330248755797E+01 -2.330628111591E+01 -2.331260677018E+01
 -2.332188113238E+01 -2.333370186025E+01 -2.334874611817E+01 -2.336594409427E+01
 -2.338524446897E+01 -2.340770251534E+01 -2.343295316242E+01 -2.346032285024E+01
 -2.349329528204E+01 -2.352760881757E+01 -2.356176233366E+01 -2.360094830391E+01
 -2.364586921418E+01 -2.368824984091E+01 -2.373566279433E+01 -2.378865857902E+01
 -2.384783552818E+01 -2.390006063619E+01 -2.395700835007E+01 -2.401905153062E+01
 -2.408658137327E+01 -2.416000586311E+01 -2.423974754292E+01 -2.430396024111E+01
 -2.437215645844E+01 -2.444452351372E+01 -2.452124853840E+01 -2.460251682711E+01
 -2.468850991744E+01 -2.477940337400E+01 -2.487536425214E+01 -2.497654821698E+01
 -2.508309629488E+01 -2.519513123606E+01 -2.527292009957E+01 -2.535321609403E+01
 -2.543603664025E+01 -2.552139256662E+01 -2.560928739699E+01 -2.569971660034E+01
 -2.579266680268E+01 -2.588811496207E+01 -2.598602750797E+01 -2.608635944626E+01
 -2.618905343216E+01 -2.629403881315E+01 -2.640123064492E+01 -2.651052868338E+01
 -2.662181635651E+01 -2.673495972027E+01 -2.684980640304E+01 -2.696618454369E+01
 -2.708390172889E+01 -2.720274393551E+01 -2.732247448454E+01 -2.744283301344E+01
 -2.756353447407E+01 -2.768426816404E+01 -2.780469679949E+01 -2.792445563800E+01
 -2.804315166062E+01 -2.816036282267E+01 -2.827563738330E+01 -2.833239900408E+01
 -2.838849332475E+01 -2.844385528355E+01 -2.849841787256E+01 -2.855211212907E+01
 -2.860486712904E+01 -2.865660998279E+01 -2.870726583293E+01 -2.875675785481E+01
 -2.880500725940E+01 -2.885193329893E+01 -2.889745327532E+01 -2.894148255155E+01
 -2.898393456612E+01 -2.902472085075E+01 -2.906375105152E+01 -2.910093295347E+01
 -2.913617250900E+01 -2.916937387014E+01 -2.920043942483E+01 -2.922926983750E+01
 -2.925576409402E+01 -2.927981955125E+01 -2.930133199143E+01 -2.932019568151E+01
 -2.933630343762E+01 -2.934954669497E+01 -2.935981558326E+01 -2.936699900785E+01
 -2.937098473686E+01 -2.937165949437E+01 -2.936890906000E+01 -2.936261837486E+01
 -2.935267165420E+01 -2.933895250693E+01 -2.932134406198E+01 -2.929972910183E+01
 -2.927399020334E+01 -2.924400988582E+01 -2.920967076667E+01 -2.917085572458E+01
 -2.912744807038E+01 -2.907933172570E+01 -2.902639140943E+01 -2.896851283218E+01
 -2.890558289874E+01 -2.883748991865E+01 -2.876412382510E+01 -2.868537640221E+01
 -2.860114152094E+01 -2.851131538398E+01 -2.841579677976E+01 -2.831448734625E+01
 -2.820729184508E+01 -2.809411844660E+01 -2.797487902700E+01 -2.784948947861E+01
 -2.771787003481E+01 -2.757994561149E+01 -2.743564616733E+01 -2.728490708545E+01
 -2.712766958017E+01 -2.696388113249E+01 -2.679349595950E+01 -2.661647552336E+01
 -2.643278908687E+01 -2.624241432382E+01 -2.604533799402E+01 -2.584155669450E+01
 -2.563107770052E+01 -2.541391991260E+01 -2.519011492843E+01 -2.495970826185E+01
 -2.472276073511E+01 -2.447935007470E+01 -2.422957274654E+01 -2.397354607197E+01
 -2.371141067270E+01 -2.344333330067E+01 -2.316951011693E+01 -2.289017049358E+01