<?xml version="1.0" encoding="UTF-8" ?>
<psml version="1.1" energy_unit="hartree" length_unit="bohr"
 uuid="01020d50-539e-11e8-709c-d566f7d7178d"
 xmlns="http://esl.cecam.org/PSML/ns/1.1">
<provenance creator="ONCVPSP-3.3.0+psml-3.3.0-73 (fully-relativistic)"
 date="2018-05-09">
<annotation action="semilocal-pseudopotential-generation"
 action-cont="projectors-generation" />
<input-file name="oncvpsp-input">
<![CDATA[# atsym z nc nv iexc psfile
Na 11 1 3 -116133 upf
# n l f
1 0 2.0
2 0 2.0
2 1 6.0
3 0 1.0
# lmax
1
# l rc ep ncon nbas qcut
0 1.2 0.0 4 7 9.0
1 1.55 0.0 4 7 9.0
# lloc lpopt rc5 dvloc0
4 5 1.2 0.0
# l nproj debl
0 2 1.0
1 2 3.0
# icmod fcfact
0 0.04
# epsh1 epsh2 depsh
-12.0 12.0 0.02
# rlmax drl
4.0 0.01
 0
]]>
</input-file>
</provenance>
<pseudo-atom-spec atomic-label="Na" atomic-number="11" z-pseudo="9"
 flavor="Hamann&apos;s oncvpsp" relativity="dirac" spin-dft="no"
 core-corrections="no">
<annotation pseudo-energy="-45.5789350971" />
<exchange-correlation>
<annotation oncvpsp-xc-code="-116133" oncvpsp-xc-type="libxc-interface" />
<libxc-info number-of-functionals="2">
<functional name="Perdew, Burke &amp; Ernzerhof SOL (GGA)" type="exchange"
 id="116" />
<functional name="Perdew, Burke &amp; Ernzerhof SOL (GGA)" type="correlation"
 id="133" />
</libxc-info>
</exchange-correlation>
<valence-configuration total-valence-charge="9">
<shell n="2" l="s" occupation="2" />
<shell n="2" l="p" occupation="6" />
<shell n="3" l="s" occupation="1" />
</valence-configuration>
</pseudo-atom-spec>
<grid npts="457">
<annotation type="sampled from oncvpsp log grid"
 recipe="r(i:1..N) = r1*exp(a*(i-1)) + r=0; resampled"
 recipe-cont="r1: scale; a: step" scale="0.454545454545E-04"
 step="0.119285708653E-01" delta="0.500000000000E-02" rmax="44.2842989144" />
<grid-data>
  0.000000000000E+00  5.056846352100E-03  1.010065374127E-02  1.515259126661E-02
  2.017526317734E-02  2.530748255671E-02  3.062930526546E-02  3.576710657652E-02
  4.078208695772E-02  4.594884206075E-02  5.115630687128E-02  5.627859982527E-02
  6.191378916899E-02  6.730556456298E-02  7.316688385485E-02  7.859549147632E-02
  8.442687394831E-02  8.961552875446E-02  9.512306471111E-02  1.009690794195E-01
  1.071743748984E-01  1.124120865651E-01  1.179057700863E-01  1.236679350454E-01
  1.297117023806E-01  1.360508342627E-01  1.426997654326E-01  1.478988498720E-01
  1.532873563398E-01  1.588721861865E-01  1.646604922048E-01  1.706596877901E-01
  1.768774564356E-01  1.833217615728E-01  1.900008567704E-01  1.969232963057E-01
  2.040979461202E-01  2.115339951745E-01  2.166412719540E-01  2.218718588240E-01
  2.272287329835E-01  2.327149435126E-01  2.383336131088E-01  2.440879398637E-01
  2.499811990838E-01  2.560167451544E-01  2.621980134495E-01  2.685285222862E-01
  2.750118749283E-01  2.816517616365E-01  2.884519617695E-01  2.954163459344E-01
  3.025488781907E-01  3.098536183057E-01  3.173347240661E-01  3.249964536439E-01
  3.328431680207E-01  3.408793334694E-01  3.491095240967E-01  3.575384244465E-01
  3.661708321663E-01  3.750116607381E-01  3.840659422750E-01  3.933388303853E-01
  4.028356031061E-01  4.125616659075E-01  4.225225547692E-01  4.275928254264E-01
  4.327239393315E-01  4.379166266035E-01  4.431716261228E-01  4.484896856362E-01
  4.538715618639E-01  4.593180206062E-01  4.648298368535E-01  4.704077948957E-01
  4.760526884345E-01  4.817653206957E-01  4.875465045441E-01  4.933970625986E-01
  4.993178273498E-01  5.053096412780E-01  5.113733569733E-01  5.175098372570E-01
  5.237199553041E-01  5.300045947677E-01  5.363646499049E-01  5.428010257038E-01
  5.493146380122E-01  5.559064136684E-01  5.625772906324E-01  5.693282181200E-01
  5.761601567374E-01  5.830740786183E-01  5.900709675617E-01  5.971518191724E-01
  6.043176410025E-01  6.115694526945E-01  6.189082861269E-01  6.263351855604E-01
  6.338512077871E-01  6.414574222806E-01  6.491549113479E-01  6.569447702841E-01
  6.648281075275E-01  6.728060448178E-01  6.808797173557E-01  6.890502739639E-01
  6.973188772515E-01  7.056867037785E-01  7.141549442238E-01  7.227248035545E-01
  7.313975011972E-01  7.401742712116E-01  7.490563624661E-01  7.580450388157E-01
  7.671415792815E-01  7.763472782329E-01  7.856634455716E-01  7.950914069185E-01
  8.046325038015E-01  8.142880938471E-01  8.240595509733E-01  8.339482655850E-01
  8.439556447720E-01  8.540831125093E-01  8.643321098594E-01  8.747040951777E-01
  8.852005443198E-01  8.958229508517E-01  9.065728262619E-01  9.174517001770E-01
  9.284611205792E-01  9.396026540261E-01  9.508778858744E-01  9.622884205049E-01
  9.738358815510E-01  9.855219121296E-01  9.973481750751E-01  1.009316353176E+00
  1.021428149414E+00  1.033685287207E+00  1.046089510654E+00  1.058642584781E+00
  1.071346295799E+00  1.084202451348E+00  1.097212880765E+00  1.110379435334E+00
  1.123703988558E+00  1.137188436420E+00  1.150834697658E+00  1.164644714029E+00
  1.178620450598E+00  1.192763896005E+00  1.207077062757E+00  1.221561987510E+00
  1.236220731360E+00  1.251055380137E+00  1.266068044698E+00  1.281260861235E+00
  1.296635991569E+00  1.312195623468E+00  1.327941970950E+00  1.343877274601E+00
  1.360003801896E+00  1.376323847519E+00  1.392839733689E+00  1.409553810494E+00
  1.426468456220E+00  1.443586077694E+00  1.460909110627E+00  1.478440019954E+00
  1.496181300194E+00  1.514135475796E+00  1.532305101505E+00  1.550692762723E+00
  1.569301075876E+00  1.588132688787E+00  1.607190281052E+00  1.626476564425E+00
  1.645994283198E+00  1.665746214596E+00  1.685735169171E+00  1.705963991201E+00
  1.726435559096E+00  1.747152785805E+00  1.768118619235E+00  1.789336042665E+00
  1.810808075177E+00  1.832537772080E+00  1.854528225345E+00  1.876782564049E+00
  1.899303954817E+00  1.922095602275E+00  1.945160749502E+00  1.968502678496E+00
  1.992124710638E+00  2.016030207166E+00  2.040222569652E+00  2.064705240488E+00
  2.089481703374E+00  2.114555483814E+00  2.139930149620E+00  2.165609311415E+00
  2.191596623152E+00  2.217895782630E+00  2.244510532022E+00  2.271444658406E+00
  2.298701994307E+00  2.326286418239E+00  2.354201855257E+00  2.382452277520E+00
  2.411041704851E+00  2.439974205309E+00  2.469253895773E+00  2.498884942522E+00
  2.528871561832E+00  2.559218020574E+00  2.589928636821E+00  2.621007780463E+00
  2.652459873828E+00  2.684289392314E+00  2.716500865022E+00  2.749098875402E+00
  2.782088061907E+00  2.815473118650E+00  2.849258796074E+00  2.883449901627E+00
  2.918051300446E+00  2.953067916052E+00  2.988504731044E+00  3.024366787817E+00
  3.060659189271E+00  3.097387099542E+00  3.134555744736E+00  3.172170413673E+00
  3.210236458637E+00  3.248759296141E+00  3.287744407695E+00  3.327197340587E+00
  3.367123708674E+00  3.407529193178E+00  3.448419543496E+00  3.489800578018E+00
  3.531678184954E+00  3.574058323174E+00  3.616947023052E+00  3.660350387329E+00
  3.704274591977E+00  3.748725887080E+00  3.793710597725E+00  3.839235124898E+00
  3.885305946397E+00  3.931929617754E+00  3.979112773167E+00  4.026862126445E+00
  4.075184471962E+00  4.124086685625E+00  4.173575725853E+00  4.223658634563E+00
  4.274342538178E+00  4.325634648636E+00  4.377542264420E+00  4.430072771593E+00
  4.483233644852E+00  4.537032448590E+00  4.591476837973E+00  4.646574560029E+00
  4.702333454749E+00  4.758761456206E+00  4.815866593681E+00  4.873656992805E+00
  4.932140876718E+00  4.991326567239E+00  5.051222486046E+00  5.111837155879E+00
  5.173179201749E+00  5.235257352170E+00  5.298080440396E+00  5.361657405681E+00
  5.425997294549E+00  5.491109262084E+00  5.557002573229E+00  5.623686604107E+00
  5.691170843357E+00  5.759464893477E+00  5.828578472199E+00  5.898521413865E+00
  5.969303670831E+00  6.040935314881E+00  6.113426538660E+00  6.186787657124E+00
  6.261029109009E+00  6.336161458317E+00  6.412195395817E+00  6.489141740567E+00
  6.567011441454E+00  6.645815578751E+00  6.725565365696E+00  6.806272150085E+00
  6.887947415886E+00  6.970602784876E+00  7.054250018295E+00  7.138901018514E+00
  7.224567830737E+00  7.311262644705E+00  7.398997796442E+00  7.487785769999E+00
  7.577639199239E+00  7.668570869630E+00  7.760593720066E+00  7.853720844706E+00
  7.947965494843E+00  8.043341080781E+00  8.139861173750E+00  8.237539507835E+00
  8.336389981929E+00  8.436426661713E+00  8.537663781653E+00  8.640115747033E+00
  8.743797135997E+00  8.848722701629E+00  8.954907374049E+00  9.062366262537E+00
  9.171114657688E+00  9.281168033580E+00  9.392542049983E+00  9.505252554583E+00
  9.619315585238E+00  9.734747372261E+00  9.851564340728E+00  9.969783112817E+00
  1.008942051017E+01  1.021049355629E+01  1.033301947897E+01  1.045701571272E+01
  1.058249990127E+01  1.070948990008E+01  1.083800377888E+01  1.096805982423E+01
  1.109967654212E+01  1.123287266063E+01  1.136766713255E+01  1.150407913815E+01
  1.164212808780E+01  1.178183362486E+01  1.192321562836E+01  1.206629421590E+01
  1.221108974649E+01  1.235762282344E+01  1.250591429733E+01  1.265598526889E+01
  1.280785709212E+01  1.296155137723E+01  1.311708999375E+01  1.327449507368E+01
  1.343378901456E+01  1.359499448274E+01  1.375813441653E+01  1.392323202953E+01
  1.409031081388E+01  1.425939454365E+01  1.443050727817E+01  1.460367336551E+01
  1.477891744590E+01  1.495626445525E+01  1.513573962871E+01  1.531736850425E+01
  1.550117692631E+01  1.568719104942E+01  1.587543734201E+01  1.606594259012E+01
  1.625873390120E+01  1.645383870801E+01  1.665128477251E+01  1.685110018978E+01
  1.705331339206E+01  1.725795315276E+01  1.746504859060E+01  1.767462917368E+01
  1.788672472377E+01  1.810136542045E+01  1.831858180550E+01  1.853840478716E+01
  1.876086564461E+01  1.898599603234E+01  1.921382798473E+01  1.944439392055E+01
  1.967772664760E+01  1.991385936737E+01  2.015282567978E+01  2.039465958793E+01
  2.063939550299E+01  2.088706824902E+01  2.113771306801E+01  2.139136562483E+01
  2.164806201233E+01  2.190783875647E+01  2.217073282155E+01  2.243678161541E+01
  2.270602299480E+01  2.297849527073E+01  2.325423721398E+01  2.353328806055E+01
  2.381568751728E+01  2.410147576748E+01  2.439069347669E+01  2.468338179841E+01
  2.497958237999E+01  2.527933736855E+01  2.558268941698E+01  2.588968168998E+01
  2.620035787026E+01  2.651476216470E+01  2.683293931068E+01  2.715493458241E+01
  2.748079379740E+01  2.781056332297E+01  2.814429008284E+01  2.848202156384E+01
  2.882380582260E+01  2.916969149247E+01  2.951972779038E+01  2.987396452387E+01
  3.023245209815E+01  3.059524152333E+01  3.096238442161E+01  3.133393303467E+01
  3.170994023109E+01  3.209045951386E+01  3.247554502803E+01  3.286525156836E+01
  3.325963458718E+01  3.365875020223E+01  3.406265520466E+01  3.447140706711E+01
  3.488506395192E+01  3.530368471934E+01  3.572732893597E+01  3.615605688320E+01
  3.658992956580E+01  3.702900872059E+01  3.747335682524E+01  3.792303710714E+01
  3.837811355243E+01  3.883865091506E+01  3.930471472604E+01  3.977637130275E+01
  4.025368775838E+01  4.073673201148E+01  4.122557279562E+01  4.172027966917E+01
  4.222092302520E+01  4.272757410150E+01  4.324030499072E+01  4.375918865061E+01
  4.428429891442E+01
</grid-data>
</grid>
<valence-charge total-charge="9" is-unscreening-charge="yes"
 rescaled-to-z-pseudo="no">
<radfunc>
<data npts="457">
  1.687087465474E+01  1.687720386863E+01  1.689611633457E+01  1.692764343328E+01
  1.697142419351E+01  1.702889798898E+01  1.710199414786E+01  1.718548449956E+01
  1.727909149474E+01  1.738789269148E+01  1.751006673751E+01  1.764230481909E+01
  1.780134881893E+01  1.796655121662E+01  1.816024688879E+01  1.835240826625E+01
  1.857210011239E+01  1.877877815861E+01  1.900930612846E+01  1.926609816826E+01
  1.955171967501E+01  1.980278334567E+01  2.007545309494E+01  2.037118814500E+01
  2.069145816270E+01  2.103771969938E+01  2.141138631100E+01  2.171042714733E+01
  2.202615418746E+01  2.235903313383E+01  2.270946220767E+01  2.307775516268E+01
  2.346412199027E+01  2.386864714460E+01  2.429126513232E+01  2.473173333909E+01
  2.518960200443E+01  2.566418131215E+01  2.598938684931E+01  2.632123458260E+01
  2.665929508801E+01  2.700306603112E+01  2.735196646561E+01  2.770533100290E+01
  2.806240389855E+01  2.842233311019E+01  2.878416439280E+01  2.914683550888E+01
  2.950917064381E+01  2.986987513063E+01  3.022753060328E+01  3.058059071269E+01
  3.092737755672E+01  3.126607899101E+01  3.159474700490E+01  3.191129736238E+01
  3.221351072386E+01  3.249903547818E+01  3.276539252593E+01  3.300998226411E+01
  3.323009402651E+01  3.342291823361E+01  3.358556149925E+01  3.371506492624E+01
  3.380842579994E+01  3.386262285410E+01  3.387464523746E+01  3.386391086304E+01
  3.384152524966E+01  3.380713016572E+01  3.376037484114E+01  3.370091730599E+01
  3.362842578158E+01  3.354258012096E+01  3.344307329569E+01  3.332961292498E+01
  3.320192284270E+01  3.305974469720E+01  3.290283957813E+01  3.273098966406E+01
  3.254399988354E+01  3.234169958208E+01  3.212394418639E+01  3.189061685693E+01
  3.164163011869E+01  3.137692745992E+01  3.109648488752E+01  3.080031242729E+01
  3.048845555694E+01  3.016099655868E+01  2.981805577839E+01  2.945979277754E+01
  2.908640736400E+01  2.869814048755E+01  2.829527498597E+01  2.787813616749E+01
  2.744709221578E+01  2.700255440387E+01  2.654497710379E+01  2.607485757987E+01
  2.559273555385E+01  2.509919253167E+01  2.459485088250E+01  2.408037266253E+01
  2.355645817726E+01  2.302384427832E+01  2.248330239245E+01  2.193563628299E+01
  2.138167954635E+01  2.082229284853E+01  2.025836090974E+01  1.969078924767E+01
  1.912050069319E+01  1.854843169512E+01  1.797552843364E+01  1.740274276514E+01
  1.683102802396E+01  1.626133470936E+01  1.569460608887E+01  1.513177375115E+01
  1.457375314413E+01  1.402143913556E+01  1.347570163468E+01  1.293738131485E+01
  1.240728547710E+01  1.188618409486E+01  1.137480607939E+01  1.087383580418E+01
  1.038390992499E+01  9.905614529695E+00  9.439482649055E+00  8.985992156106E+00
  8.545564077650E+00  8.118561336732E+00  7.705287939970E+00  7.305988618151E+00
  6.920848922875E+00  6.549995776161E+00  6.193498464045E+00  5.851370059333E+00
  5.523569253059E+00  5.210002568801E+00  4.910526929125E+00  4.624952538998E+00
  4.353046047317E+00  4.094533944665E+00  3.849106153198E+00  3.616419763264E+00
  3.396102870836E+00  3.187758470313E+00  2.990968358513E+00  2.805297007750E+00
  2.630295368749E+00  2.465504567578E+00  2.310459464736E+00  2.164692207513E+00
  2.027736218488E+00  1.899130322906E+00  1.778421268761E+00  1.665166013126E+00
  1.558933755137E+00  1.459307723238E+00  1.365886717655E+00  1.278286413432E+00
  1.196140430507E+00  1.119101178213E+00  1.046840481919E+00  9.790499994566E-01
  9.154414345184E-01  8.557465536587E-01  7.997170129237E-01  7.471239997146E-01
  6.977576953945E-01  6.514265645399E-01  6.079564777171E-01  5.671896763322E-01
  5.289829618427E-01  4.932033722054E-01  4.597227463114E-01  4.284177163196E-01
  3.991696170422E-01  3.718644347565E-01  3.463927476487E-01  3.226496584860E-01
  3.005347201092E-01  2.799518543331E-01  2.608092648372E-01  2.430193446251E-01
  2.264985786252E-01  2.111674419991E-01  1.969502947174E-01  1.837752729500E-01
  1.715741778073E-01  1.602823619519E-01  1.498386145790E-01  1.401850452390E-01
  1.312669669442E-01  1.230327789649E-01  1.154338496773E-01  1.084243997708E-01
  1.019613860723E-01  9.600438617587E-02  9.051548400634E-02  8.545915638070E-02
  8.080216057854E-02  7.651342289759E-02  7.256392816750E-02  6.892661023751E-02
  6.557624355638E-02  6.248933613408E-02  5.964402441291E-02  5.701997085856E-02
  5.459826536273E-02  5.236133175455E-02  5.029284076113E-02  4.837763056145E-02
  4.660163561282E-02  4.495182374584E-02  4.341614075515E-02  4.198346104434E-02
  4.064354248483E-02  3.938698361099E-02  3.820518157389E-02  3.709028979719E-02
  3.603517486302E-02  3.503337266526E-02  3.407904422232E-02  3.316693172264E-02
  3.229231540992E-02  3.145097184900E-02  3.063913399530E-02  2.985345335779E-02
  2.909096442233E-02  2.834905139977E-02  2.762541728635E-02  2.691805516969E-02
  2.622522167942E-02  2.554541246175E-02  2.487733954866E-02  2.421991049106E-02
  2.357220912825E-02  2.293347787242E-02  2.230310139411E-02  2.168059160272E-02
  2.106557382440E-02  2.045777408704E-02  1.985700742983E-02  1.926316716124E-02
  1.867621499567E-02  1.809617200438E-02  1.752311032169E-02  1.695714555144E-02
  1.639842982335E-02  1.584714545209E-02  1.530349915526E-02  1.476771678938E-02
  1.424003856547E-02  1.372071470810E-02  1.321000152374E-02  1.270815784613E-02
  1.221544182800E-02  1.173210805004E-02  1.125840491953E-02  1.079457233252E-02
  1.034083957518E-02  9.897423441568E-03  9.464526547131E-03  9.042335819369E-03
  8.631021149689E-03  8.230734193115E-03  7.841607305570E-03  7.463752611529E-03
  7.097261198026E-03  6.742202434012E-03  6.398623416843E-03  6.066548549960E-03
  5.745979257491E-03  5.436893842412E-03  5.139247494986E-03  4.852972457383E-03
  4.577978348782E-03  4.314152652551E-03  4.061361367606E-03  3.819449811684E-03
  3.588243579505E-03  3.367549638803E-03  3.157157552010E-03  2.956840807394E-03
  2.766358241460E-03  2.585455533022E-03  2.413866748637E-03  2.251315918951E-03
  2.097518625965E-03  1.952183582160E-03  1.815014183780E-03  1.685710022248E-03
  1.563968339539E-03  1.449485415432E-03  1.341957876566E-03  1.241083919372E-03
  1.146564440906E-03  1.058104073548E-03  9.754121212610E-04  8.982033967191E-04
  8.261989600077E-04  7.591267608498E-04  6.967221873457E-04  6.387285250870E-04
  5.848973312019E-04  5.349887284276E-04  4.887716246918E-04  4.460238639476E-04
  4.065323141372E-04  3.700928981969E-04  3.365105739509E-04  3.055992686049E-04
  2.771817733457E-04  2.510896032920E-04  2.271628277418E-04  2.052498753271E-04
  1.852073183293E-04  1.668996400420E-04  1.501989886907E-04  1.349849210517E-04
  1.211441385497E-04  1.085702182714E-04  9.716334100379E-05  8.683001811447E-05
  7.748281882547E-05  6.904009915201E-05  6.142573361503E-05  5.456885065841E-05
  4.840357247905E-05  4.286875989266E-05  3.790776277494E-05  3.346817649825E-05
  2.950160471924E-05  2.596342882547E-05  2.281258430291E-05  2.001134424989E-05
  1.752511023238E-05  1.532221064869E-05  1.337370674588E-05  1.165320640528E-05
  1.013668578904E-05  8.802318912890E-06  7.630315182677E-06  6.602764903234E-06
  5.703492738256E-06  4.917919069355E-06  4.232929171894E-06  3.636750095059E-06
  3.118835104404E-06  2.669755517297E-06  2.281099735857E-06  1.945379258339E-06
  1.655941428938E-06  1.406888667813E-06  1.193003907937E-06  1.009681953264E-06
  8.528664636260E-07  7.189922656894E-07  6.049326861333E-07  5.079516026865E-07
  4.256599107071E-07  3.559761072757E-07  2.970907010969E-07  2.474341646020E-07
  2.056481542434E-07  1.705597358170E-07  1.411583634934E-07  1.165753738330E-07
  9.606576919094E-08  7.899207837530E-08  6.481009601746E-08  5.305631568999E-08
  4.333688521119E-08  3.531792569034E-08  2.871706858602E-08  2.329607728891E-08
  1.885443143269E-08  1.522376323235E-08  1.226304561305E-08  9.854441702047E-09
  7.899734401815E-09  6.317263243237E-09  5.039303543136E-09  4.009830075257E-09
  3.182614030381E-09  2.519608015416E-09  1.989579252766E-09  1.566956022259E-09
  1.230856772191E-09  9.642752481413E-10  7.533984830470E-10  5.870375939344E-10
  4.561540733822E-10  3.534666796530E-10  2.731261495187E-10  2.104468114715E-10
  1.616857918230E-10  1.238619078480E-10  9.460755438572E-11  7.204793502806E-11
  5.470288614599E-11  4.140730966364E-11  3.124688504208E-11  2.350628707842E-11
  1.762760699011E-11  1.317707150949E-11  9.818488684087E-12  7.292128852236E-12
  5.397982804809E-12  3.982533399889E-12  2.928337898254E-12  2.145851249197E-12
  1.567029965424E-12  1.140345928731E-12  8.269127462431E-13  5.974869180810E-13
  4.301544402356E-13  3.085525379835E-13  2.205076722915E-13  1.569961766270E-13
  1.113540226049E-13  7.867823926795E-14  5.537521378616E-14  3.882113083155E-14
  2.710769534730E-14  1.885246169270E-14  1.305791217815E-14  9.007173166956E-15
  6.187155005631E-15  4.232135379594E-15  2.882519570560E-15  1.954820792840E-15
  1.319900360787E-15  8.872624878073E-16  5.937680861563E-16  3.955597008908E-16
  2.623095481638E-16  1.731406942580E-16  1.137478084459E-16  7.437402513441E-17
  4.839596313795E-17  3.133873963925E-17  2.019356895906E-17  1.294726750521E-17
  8.259440805640E-18  5.242088280819E-18  3.309882073077E-18  2.078969980729E-18
  1.298925235839E-18  0.000000000000E+00  0.000000000000E+00  0.000000000000E+00
  0.000000000000E+00
</data>
</radfunc>
</valence-charge>
<semilocal-potentials set="lj">
<slps n="2" l="s" j="0.5" rc="1.20707706276" eref="-2.07894527802">
<radfunc>
<data npts="256">
 -1.666401264118E+01 -1.666520703691E+01 -1.666868282959E+01 -1.667419524460E+01
 -1.668129852699E+01 -1.668972392761E+01 -1.669910715467E+01 -1.670820949236E+01
 -1.671663234105E+01 -1.672439200073E+01 -1.673090755750E+01 -1.673577611779E+01
 -1.673916805190E+01 -1.674038613947E+01 -1.673943840497E+01 -1.673649554044E+01
 -1.673122464002E+01 -1.672481139575E+01 -1.671636224442E+01 -1.670570201775E+01
 -1.669266834110E+01 -1.668043213170E+01 -1.666651155197E+01 -1.665084167432E+01
 -1.663336178511E+01 -1.661401429837E+01 -1.659274339764E+01 -1.657549454267E+01
 -1.655710847060E+01 -1.653756012215E+01 -1.651682284443E+01 -1.649486777075E+01
 -1.647166312298E+01 -1.644717341899E+01 -1.642135856342E+01 -1.639417279563E+01
 -1.636556346360E+01 -1.633546958758E+01 -1.631454766762E+01 -1.629291073669E+01
 -1.627053222687E+01 -1.624738257804E+01 -1.622342887141E+01 -1.619863442459E+01
 -1.617295834648E+01 -1.614635505054E+01 -1.611877372633E+01 -1.609015777104E+01
 -1.606044418469E+01 -1.602956293565E+01 -1.599743630703E+01 -1.596397823866E+01
 -1.592909368475E+01 -1.589267801330E+01 -1.585461647920E+01 -1.581478380924E+01
 -1.577304394235E+01 -1.572924997198E+01 -1.568324433803E+01 -1.563485931295E+01
 -1.558391781819E+01 -1.553023459344E+01 -1.547361772116E+01 -1.541387048366E+01
 -1.535079350094E+01 -1.528418706739E+01 -1.521385357812E+01 -1.517722860083E+01
 -1.513959991542E+01 -1.510094444588E+01 -1.506123965647E+01 -1.502046360168E+01
 -1.497859496879E+01 -1.493561311242E+01 -1.489149808074E+01 -1.484623063323E+01
 -1.479979225004E+01 -1.475216513321E+01 -1.470333220028E+01 -1.465327707087E+01
 -1.460198404725E+01 -1.454943808967E+01 -1.449562478767E+01 -1.444053032855E+01
 -1.438414146416E+01 -1.432644547719E+01 -1.426743014820E+01 -1.420708372453E+01
 -1.414539489196E+01 -1.408235275018E+01 -1.401794679269E+01 -1.395216689189E+01
 -1.388500328964E+01 -1.381644659371E+01 -1.374648778029E+01 -1.367511820242E+01
 -1.360232960439E+01 -1.352811414178E+01 -1.345246440689E+01 -1.337537345919E+01
 -1.329683486026E+01 -1.321684271306E+01 -1.313539170481E+01 -1.305247715338E+01
 -1.296809505668E+01 -1.288224214495E+01 -1.279491593585E+01 -1.270611479218E+01
 -1.261583798269E+01 -1.252408574605E+01 -1.243085935871E+01 -1.233616120722E+01
 -1.223999486618E+01 -1.214236518284E+01 -1.204327836995E+01 -1.194274210870E+01
 -1.184076566357E+01 -1.173736001181E+01 -1.163253799003E+01 -1.152631446108E+01
 -1.141870650471E+01 -1.130973363567E+01 -1.119941805374E+01 -1.108778492993E+01
 -1.097486273408E+01 -1.086068360904E+01 -1.074528379708E+01 -1.062870412440E+01
 -1.051099054977E+01 -1.039219478342E+01 -1.027237498206E+01 -1.015159652582E+01
 -1.002993288200E+01 -9.907466559884E+00 -9.784290159435E+00 -9.660507514956E+00
 -9.536234932602E+00 -9.411602517856E+00 -9.286755585744E+00 -9.161856142745E+00
 -9.037084425006E+00 -8.912640472750E+00 -8.788745715802E+00 -8.665644540104E+00
 -8.543605800197E+00 -8.422924238239E+00 -8.303921766346E+00 -8.186948566451E+00
 -8.072383960540E+00 -7.960637004638E+00 -7.852146762343E+00 -7.747382226729E+00
 -7.646841753159E+00 -7.551052070630E+00 -7.460568791161E+00 -7.373376069952E+00
 -7.286905023712E+00 -7.201214721873E+00 -7.116304956796E+00 -7.032179084831E+00
 -6.948843057273E+00 -6.866305594713E+00 -6.784578224739E+00 -6.703675257258E+00
 -6.623613641293E+00 -6.544412659722E+00 -6.466093413572E+00 -6.388678053911E+00
 -6.312188734233E+00 -6.236646282119E+00 -6.162068627334E+00 -6.088469073971E+00
 -6.015854512552E+00 -5.944224457047E+00 -5.873570214818E+00 -5.803863809231E+00
 -5.735041753202E+00 -5.667041112844E+00 -5.599842187417E+00 -5.533440607176E+00
 -5.467826361767E+00 -5.402990165487E+00 -5.338922788853E+00 -5.275615115357E+00
 -5.213058136688E+00 -5.151242951455E+00 -5.090160763916E+00 -5.029802882723E+00
 -4.970160719692E+00 -4.911225788590E+00 -4.852989703904E+00 -4.795444179678E+00
 -4.738581028374E+00 -4.682392159618E+00 -4.626869579085E+00 -4.572005387366E+00
 -4.517791778751E+00 -4.464221040061E+00 -4.411285549425E+00 -4.358977775028E+00
 -4.307290273807E+00 -4.256215690108E+00 -4.205746754300E+00 -4.155876281388E+00
 -4.106597169663E+00 -4.057902399477E+00 -4.009785032224E+00 -3.962238209664E+00
 -3.915255153670E+00 -3.868829166452E+00 -3.822953631210E+00 -3.777622013028E+00
 -3.732827859668E+00 -3.688564801837E+00 -3.644826552516E+00 -3.601606905099E+00
 -3.558899730422E+00 -3.516698973067E+00 -3.474998647589E+00 -3.433792835300E+00
 -3.393075682052E+00 -3.352841397173E+00 -3.313084253381E+00 -3.273798587336E+00
 -3.234978800425E+00 -3.196619359452E+00 -3.158714797010E+00 -3.121259711469E+00
 -3.084248766593E+00 -3.047676690867E+00 -3.011538276652E+00 -2.975828379227E+00
 -2.940541915817E+00 -2.905673864627E+00 -2.871219263919E+00 -2.837173211135E+00
 -2.803530862068E+00 -2.770287430075E+00 -2.737438185330E+00 -2.704978454102E+00
 -2.672903618066E+00 -2.641209113625E+00 -2.609890431251E+00 -2.578943114845E+00
 -2.548362761102E+00 -2.518145018884E+00 -2.488285588608E+00 -2.458780221640E+00
 -2.429624719692E+00 -2.400814934230E+00 -2.372346765890E+00 -2.344216163900E+00
 -2.316419125501E+00 -2.288951695388E+00 -2.261809965149E+00 -2.234990072711E+00
</data>
</radfunc>
</slps>
<slps n="2" l="p" j="1.5" rc="1.55069276272" eref="-1.05077789968">
<radfunc>
<data npts="256">
 -2.322154865159E+01 -2.322250727253E+01 -2.322527821003E+01 -2.322961453230E+01
 -2.323508232561E+01 -2.324135666807E+01 -2.324799746756E+01 -2.325395820132E+01
 -2.325884700516E+01 -2.326248319796E+01 -2.326434803447E+01 -2.326415811902E+01
 -2.326143175911E+01 -2.325625423745E+01 -2.324775444897E+01 -2.323726135630E+01
 -2.322328626147E+01 -2.320861251324E+01 -2.319086543610E+01 -2.316974080192E+01
 -2.314493142964E+01 -2.312222204602E+01 -2.309679341157E+01 -2.306847972809E+01
 -2.303710984174E+01 -2.300250529491E+01 -2.296447803540E+01 -2.293359150092E+01
 -2.290057740413E+01 -2.286534022782E+01 -2.282777803283E+01 -2.278778152672E+01
 -2.274523303575E+01 -2.270000536159E+01 -2.265196049948E+01 -2.260094818946E+01
 -2.254680426752E+01 -2.248934877776E+01 -2.244910843278E+01 -2.240724515473E+01
 -2.236369095634E+01 -2.231837303752E+01 -2.227121333830E+01 -2.222212804901E+01
 -2.217102707529E+01 -2.211781345620E+01 -2.206238273481E+01 -2.200462228242E+01
 -2.194441057955E+01 -2.188161645969E+01 -2.181609832576E+01 -2.174770335320E+01
 -2.167626669920E+01 -2.160161074318E+01 -2.152354438997E+01 -2.144186247306E+01
 -2.135634530061E+01 -2.126675839057E+01 -2.117285244208E+01 -2.107436358751E+01
 -2.097101396153E+01 -2.086251261039E+01 -2.074855674501E+01 -2.062883331730E+01
 -2.050302087068E+01 -2.037079158734E+01 -2.023181342867E+01 -2.015968912726E+01
 -2.008575224701E+01 -2.000996101094E+01 -1.993227374010E+01 -1.985264889788E+01
 -1.977104512756E+01 -1.968742128321E+01 -1.960173645339E+01 -1.951394997799E+01
 -1.942402145837E+01 -1.933191076141E+01 -1.923757801819E+01 -1.914098361840E+01
 -1.904208820149E+01 -1.894085264618E+01 -1.883723805960E+01 -1.873120576794E+01
 -1.862271731013E+01 -1.851173443641E+01 -1.839821911368E+01 -1.828213353916E+01
 -1.816344016442E+01 -1.804210173113E+01 -1.791808132047E+01 -1.779134241747E+01
 -1.766184899184E+01 -1.752956559676E+01 -1.739445748664E+01 -1.725649075543E+01
 -1.711563249636E+01 -1.697185098450E+01 -1.682511588315E+01 -1.667539847526E+01
 -1.652267192118E+01 -1.636691154381E+01 -1.620809514269E+01 -1.604620333829E+01
 -1.588121994805E+01 -1.571313239586E+01 -1.554193215653E+01 -1.536761523716E+01
 -1.519018269732E+01 -1.500964120975E+01 -1.482600366375E+01 -1.463928981300E+01
 -1.444952696969E+01 -1.425675074654E+01 -1.406100584817E+01 -1.386234691279E+01
 -1.366083940481E+01 -1.345656055824E+01 -1.324960036998E+01 -1.304006264120E+01
 -1.282806606357E+01 -1.261374534586E+01 -1.239725237447E+01 -1.217875739954E+01
 -1.195845023571E+01 -1.173654146402E+01 -1.151326361806E+01 -1.128887233400E+01
 -1.106364744014E+01 -1.083789395723E+01 -1.061194297582E+01 -1.038615237221E+01
 -1.016090731862E+01 -9.936620538188E+00 -9.713732249670E+00 -9.492709741483E+00
 -9.274046510161E+00 -9.058260894444E+00 -8.845894133804E+00 -8.637507779641E+00
 -8.433680389232E+00 -8.235003437407E+00 -8.042076389513E+00 -7.855500892049E+00
 -7.675874055003E+00 -7.503780822647E+00 -7.339785457534E+00 -7.184422195371E+00
 -7.038185165874E+00 -6.901517715312E+00 -6.774801308940E+00 -6.658344241754E+00
 -6.552370311697E+00 -6.457007838088E+00 -6.372281271980E+00 -6.298106259691E+00
 -6.234277636393E+00 -6.180454886297E+00 -6.136161025509E+00 -6.100783976782E+00
 -6.073575408491E+00 -6.053653077484E+00 -6.040005424726E+00 -6.031498458595E+00
 -6.026884770619E+00 -6.024814497704E+00 -6.023848020165E+00 -6.022470202035E+00
 -6.019106042125E+00 -6.012137718689E+00 -5.999923181570E+00 -5.980816673890E+00
 -5.953191794704E+00 -5.915468762263E+00 -5.866146248240E+00 -5.803828765051E+00
 -5.735041753202E+00 -5.667041112844E+00 -5.599842187417E+00 -5.533440607176E+00
 -5.467826361767E+00 -5.402990165487E+00 -5.338922788853E+00 -5.275615115357E+00
 -5.213058136688E+00 -5.151242951455E+00 -5.090160763916E+00 -5.029802882723E+00
 -4.970160719692E+00 -4.911225788590E+00 -4.852989703904E+00 -4.795444179678E+00
 -4.738581028374E+00 -4.682392159618E+00 -4.626869579085E+00 -4.572005387366E+00
 -4.517791778751E+00 -4.464221040061E+00 -4.411285549425E+00 -4.358977775028E+00