Sn    ONCVPSP-3.3.0  r_core=   2.27326   2.62311   3.13707
50.0000      4.0000      180430    zatom,zion,pspd
8 -116133   2     4   600     0    pspcod,pspxc,lmax,lloc,mmax,r2well
5.99000000  7.00000000  0.00000000    rchrg fchrg qchrg
2     4     4     0    nproj
3     1           extension_switch
4     4     0    nprojso
0                         5.4775343295367D-01  4.4610421002308D+00
1  0.0000000000000D+00 -1.3954531974392D-11  1.3245238239534D-12
2  1.0000000000000D-02  1.6754790125263D-02  1.4854306493940D-02
3  2.0000000000000D-02  3.3431231892963D-02  2.9719243480840D-02
4  3.0000000000000D-02  4.9951273781634D-02  4.4605393219500D-02
5  4.0000000000000D-02  6.6237456905725D-02  5.9523241632823D-02
6  5.0000000000000D-02  8.2213208746407D-02  7.4483130470586D-02
7  6.0000000000000D-02  9.7803133787625D-02  8.9495209868132D-02
8  7.0000000000000D-02  1.1293330004228D-01  1.0456939143139D-01
9  8.0000000000000D-02  1.2753152046733D-01  1.1971530197726D-01
10  9.0000000000000D-02  1.4152762828404D-01  1.3494223805684D-01
11  1.0000000000000D-01  1.5485374524039D-01  1.5025912138672D-01
12  1.1000000000000D-01  1.6744454187666D-01  1.6567445531166D-01
13  1.2000000000000D-01  1.7923748888253D-01  1.8119628241890D-01
14  1.3000000000000D-01  1.9017309866422D-01  1.9683214342175D-01
15  1.4000000000000D-01  2.0019515627384D-01  2.1258903742670D-01
16  1.5000000000000D-01  2.0925093888919D-01  2.2847338369478D-01
17  1.6000000000000D-01  2.1729142307136D-01  2.4449098500424D-01
18  1.7000000000000D-01  2.2427147906937D-01  2.6064699271722D-01
19  1.8000000000000D-01  2.3015005148489D-01  2.7694587364912D-01
20  1.9000000000000D-01  2.3489032565740D-01  2.9339137883447D-01
21  2.0000000000000D-01  2.3845987917805D-01  3.0998651427849D-01
22  2.1000000000000D-01  2.4083081799224D-01  3.2673351377817D-01
23  2.2000000000000D-01  2.4197989660294D-01  3.4363381389187D-01
24  2.3000000000000D-01  2.4188862194182D-01  3.6068803113040D-01
25  2.4000000000000D-01  2.4054334053066D-01  3.7789594143740D-01
26  2.5000000000000D-01  2.3793530861324D-01  3.9525646202058D-01
27  2.6000000000000D-01  2.3406074499620D-01  4.1276763558963D-01
28  2.7000000000000D-01  2.2892086639655D-01  4.3042661705025D-01
29  2.8000000000000D-01  2.2252190515399D-01  4.4822966269778D-01
30  2.9000000000000D-01  2.1487510922646D-01  4.6617212194707D-01
31  3.0000000000000D-01  2.0599672444876D-01  4.8424843162922D-01
32  3.1000000000000D-01  1.9590795909473D-01  5.0245211287881D-01
33  3.2000000000000D-01  1.8463493084486D-01  5.2077577062896D-01
34  3.3000000000000D-01  1.7220859632195D-01  5.3921109572462D-01
35  3.4000000000000D-01  1.5866466341741D-01  5.5774886965796D-01
36  3.5000000000000D-01  1.4404348669062D-01  5.7637897192280D-01
37  3.6000000000000D-01  1.2838994618236D-01  5.9509038997851D-01
38  3.7000000000000D-01  1.1175331004070D-01  6.1387123180699D-01
39  3.8000000000000D-01  9.4187081414318D-02  6.3270874103963D-01
40  3.9000000000000D-01  7.5748830122474D-02  6.5158931462464D-01
41  4.0000000000000D-01  5.6500009664410D-02  6.7049852299847D-01
42  4.1000000000000D-01  3.6505760181726D-02  6.8942113271880D-01
43  4.2000000000000D-01  1.5834698036633D-02  7.0834113150992D-01
44  4.3000000000000D-01 -5.4413072841760D-03  7.2724175566532D-01
45  4.4000000000000D-01 -2.7247368185905D-02  7.4610551974612D-01
46  4.5000000000000D-01 -4.9505825105964D-02  7.6491424850805D-01
47  4.6000000000000D-01 -7.2136502942939D-02  7.8364911098384D-01
48  4.7000000000000D-01 -9.5056976902191D-02  8.0229065664239D-01
49  4.8000000000000D-01 -1.1818284685294D-01  8.2081885354052D-01
50  4.9000000000000D-01 -1.4142801926094D-01  8.3921312837801D-01
51  5.0000000000000D-01 -1.6470499573427D-01  8.5745240836173D-01
52  5.1000000000000D-01 -1.8792516719501D-01  8.7551516477961D-01
53  5.2000000000000D-01 -2.1099911267026D-01  8.9337945818108D-01
54  5.3000000000000D-01 -2.3383690167780D-01  9.1102298505605D-01
55  5.4000000000000D-01 -2.5634839916904D-01  9.2842312590068D-01
56  5.5000000000000D-01 -2.7844357198170D-01  9.4555699455445D-01
57  5.6000000000000D-01 -3.0003279574842D-01  9.6240148868963D-01
58  5.7000000000000D-01 -3.2102716120478D-01  9.7893334133096D-01
59  5.8000000000000D-01 -3.4133877884198D-01  9.9512917328098D-01
60  5.9000000000000D-01 -3.6088108085289D-01  1.0109655463233D+00
61  6.0000000000000D-01 -3.7956911933016D-01  1.0264190170744D+00
62  6.1000000000000D-01 -3.9731985968584D-01  1.0414661913527D+00
63  6.2000000000000D-01 -4.1405246827853D-01  1.0560837789312D+00
64  6.3000000000000D-01 -4.2968859325293D-01  1.0702486485407D+00
65  6.4000000000000D-01 -4.4415263761951D-01  1.0839378829871D+00
66  6.5000000000000D-01 -4.5737202362830D-01  1.0971288342480D+00
67  6.6000000000000D-01 -4.6927744752030D-01  1.1097991784130D+00
68  6.7000000000000D-01 -4.7980312377276D-01  1.1219269703307D+00
69  6.8000000000000D-01 -4.8888701799068D-01  1.1334906978285D+00
70  6.9000000000000D-01 -4.9647106763565D-01  1.1444693353695D+00
71  7.0000000000000D-01 -5.0250138982514D-01  1.1548423970145D+00
72  7.1000000000000D-01 -5.0692847548013D-01  1.1645899885560D+00
73  7.2000000000000D-01 -5.0970736914551D-01  1.1736928586939D+00
74  7.3000000000000D-01 -5.1079783385832D-01  1.1821324491267D+00
75  7.4000000000000D-01 -5.1016450048977D-01  1.1898909434301D+00
76  7.5000000000000D-01 -5.0777700104186D-01  1.1969513146021D+00
77  7.6000000000000D-01 -5.0361008543437D-01  1.2032973711535D+00
78  7.7000000000000D-01 -4.9764372137661D-01  1.2089138016283D+00
79  7.8000000000000D-01 -4.8986317697621D-01  1.2137862174401D+00
80  7.9000000000000D-01 -4.8025908579856D-01  1.2179011939159D+00
81  8.0000000000000D-01 -4.6882749415136D-01  1.2212463094429D+00
82  8.1000000000000D-01 -4.5556989043113D-01  1.2238101826168D+00
83  8.2000000000000D-01 -4.4049321643144D-01  1.2255825072969D+00
84  8.3000000000000D-01 -4.2360986057586D-01  1.2265540854765D+00
85  8.4000000000000D-01 -4.0493763310226D-01  1.2267168578826D+00
86  8.5000000000000D-01 -3.8449972328804D-01  1.2260639322256D+00
87  8.6000000000000D-01 -3.6232463886964D-01  1.2245896090219D+00
88  8.7000000000000D-01 -3.3844612787172D-01  1.2222894049232D+00
89  8.8000000000000D-01 -3.1290308312352D-01  1.2191600734861D+00
90  8.9000000000000D-01 -2.8573942980085D-01  1.2151996233266D+00
91  9.0000000000000D-01 -2.5700399639164D-01  1.2104073336078D+00
92  9.1000000000000D-01 -2.2675036954144D-01  1.2047837668155D+00
93  9.2000000000000D-01 -1.9503673329191D-01  1.1983307787841D+00
94  9.3000000000000D-01 -1.6192569328012D-01  1.1910515259393D+00
95  9.4000000000000D-01 -1.2748408651905D-01  1.1829504697341D+00
96  9.5000000000000D-01 -9.1782777430738D-02  1.1740333782573D+00
97  9.6000000000000D-01 -5.4896440851122D-02  1.1643073250038D+00
98  9.7000000000000D-01 -1.6903332771193D-02  1.1537806847997D+00
99  9.8000000000000D-01  2.2114950377934D-02  1.1424631268852D+00
100  9.9000000000000D-01  6.2073723048782D-02  1.1303656051613D+00
101  1.0000000000000D+00  1.0288547162634D-01  1.1175003456159D+00
102  1.0100000000000D+00  1.4446012428461D-01  1.1038808309505D+00
103  1.0200000000000D+00  1.8670532870334D-01  1.0895217824342D+00
104  1.0300000000000D+00  2.2952673667069D-01  1.0744391390203D+00
105  1.0400000000000D+00  2.7282829457563D-01  1.0586500337656D+00
106  1.0500000000000D+00  3.1651253877260D-01  1.0421727675992D+00
107  1.0600000000000D+00  3.6048089478693D-01  1.0250267804938D+00
108  1.0700000000000D+00  4.0463397931707D-01  1.0072326200995D+00
109  1.0800000000000D+00  4.4887190398187D-01  9.8881190790398D-01
110  1.0900000000000D+00  4.9309457975718D-01  9.6978730299085D-01
111  1.1000000000000D+00  5.3720202104539D-01  9.5018246347162D-01
112  1.1100000000000D+00  5.8109464832580D-01  9.3002200567416D-01
113  1.1200000000000D+00  6.2467358834151D-01  9.0933146117380D-01
114  1.1300000000000D+00  6.6784097078992D-01  8.8813723175956D-01
115  1.1400000000000D+00  7.1050022049779D-01  8.6646654243166D-01
116  1.1500000000000D+00  7.5255634408328D-01  8.4434739253222D-01
117  1.1600000000000D+00  7.9391621013006D-01  8.2180850511441D-01
118  1.1700000000000D+00  8.3448882192343D-01  7.9887927465960D-01
119  1.1800000000000D+00  8.7418558182688D-01  7.7558971325585D-01
120  1.1900000000000D+00  9.1292054641506D-01  7.5197039535479D-01
121  1.2000000000000D+00  9.5061067151950D-01  7.2805240122712D-01
122  1.2100000000000D+00  9.8717604636432D-01  7.0386725923925D-01
123  1.2200000000000D+00  1.0225401160345D+00  6.7944688707727D-01
124  1.2300000000000D+00  1.0566298915586D+00  6.5482353204641D-01
125  1.2400000000000D+00  1.0893761469242D+00  6.3002971057575D-01
126  1.2500000000000D+00  1.1207136024034D+00  6.0509814706033D-01
127  1.2600000000000D+00  1.1505810936311D+00  5.8006171217424D-01
128  1.2700000000000D+00  1.1789217259122D+00  5.5495336078883D-01
129  1.2800000000000D+00  1.2056830132920D+00  5.2980606963176D-01
130  1.2900000000000D+00  1.2308170020117D+00  5.0465277482275D-01
131  1.3000000000000D+00  1.2542803779983D+00  4.7952630942199D-01
132  1.3100000000000D+00  1.2760345580933D+00  4.5445934112776D-01
133  1.3200000000000D+00  1.2960457648444D+00  4.2948431025834D-01
134  1.3300000000000D+00  1.3142850846699D+00  4.0463336815360D-01
135  1.3400000000000D+00  1.3307285093051D+00  3.7993831613072D-01
136  1.3500000000000D+00  1.3453569605504D+00  3.5543054512522D-01
137  1.3600000000000D+00  1.3581562982822D+00  3.3114097615047D-01
138  1.3700000000000D+00  1.3691173118781D+00  3.0710000170392D-01
139  1.3800000000000D+00  1.3782356952244D+00  2.8333742824581D-01
140  1.3900000000000D+00  1.3855120054537D+00  2.5988241987884D-01
141  1.4000000000000D+00  1.3909516057975D+00  2.3676344334599D-01
142  1.4100000000000D+00  1.3945645928111D+00  2.1400821446900D-01
143  1.4200000000000D+00  1.3963657083917D+00  1.9164364614337D-01
144  1.4300000000000D+00  1.3963742370983D+00  1.6969579799714D-01
145  1.4400000000000D+00  1.3946138891603D+00  1.4818982783163D-01
146  1.4500000000000D+00  1.3911126698767D+00  1.2714994493764D-01
147  1.4600000000000D+00  1.3859027358942D+00  1.0659936539677D-01
148  1.4700000000000D+00  1.3790202390816D+00  8.6560269460213D-02
149  1.4800000000000D+00  1.3705051587019D+00  6.7053761093237D-02
150  1.4900000000000D+00  1.3604011225508D+00  4.8099829783936D-02
151  1.5000000000000D+00  1.3487552179581D+00  2.9717314678989D-02
152  1.5100000000000D+00  1.3356177933141D+00  1.1923871147552D-02
153  1.5200000000000D+00  1.3210422511024D+00 -5.2640601791080D-03
154  1.5300000000000D+00  1.3050848331982D+00 -2.1831281806670D-02
155  1.5400000000000D+00  1.2878043993920D+00 -3.7763865165787D-02
156  1.5500000000000D+00  1.2692622000153D+00 -5.3049173731854D-02
157  1.5600000000000D+00  1.2495216436053D+00 -6.7675883418757D-02
158  1.5700000000000D+00  1.2286480605512D+00 -8.1634000221258D-02
159  1.5800000000000D+00  1.2067084636653D+00 -9.4914875038832D-02
160  1.5900000000000D+00  1.1837713066240D+00 -1.0751121568838D-01
161  1.6000000000000D+00  1.1599062412587D+00 -1.1941709603098D-01
162  1.6100000000000D+00  1.1351838745884D+00 -1.3062796224746D-01
163  1.6200000000000D+00  1.1096755266237D+00 -1.4114063619083D-01
164  1.6300000000000D+00  1.0834529897526D+00 -1.5095331586477D-01
165  1.6400000000000D+00  1.0565882907666D+00 -1.6006557297105D-01
166  1.6500000000000D+00  1.0291534562585D+00 -1.6847834758149D-01
167  1.6600000000000D+00  1.0012202824433D+00 -1.7619393989550D-01
168  1.6700000000000D+00  9.7286011005556D-01 -1.8321599914498D-01
169  1.6800000000000D+00  9.4414360534771D-01 -1.8954950962404D-01
170  1.6900000000000D+00  9.1514054774539D-01 -1.9520077391367D-01
171  1.7000000000000D+00  8.8591962515865D-01 -2.0017739329215D-01
172  1.7100000000000D+00  8.5654823737262D-01 -2.0448824541261D-01
173  1.7200000000000D+00  8.2709230850994D-01 -2.0814345924750D-01
174  1.7300000000000D+00  7.9761610880334D-01 -2.1115438739710D-01
175  1.7400000000000D+00  7.6818208670620D-01 -2.1353357576506D-01
176  1.7500000000000D+00  7.3885071132016D-01 -2.1529473071856D-01
177  1.7600000000000D+00  7.0968032626941D-01 -2.1645268373397D-01
178  1.7700000000000D+00  6.8072701464824D-01 -2.1702335366981D-01
179  1.7800000000000D+00  6.5204447635898D-01 -2.1702370666128D-01
180  1.7900000000000D+00  6.2368391701660D-01 -2.1647171380473D-01
181  1.8000000000000D+00  5.9569394997273D-01 -2.1538630661928D-01
182  1.8100000000000D+00  5.6812051023036D-01 -2.1378733047240D-01
183  1.8200000000000D+00  5.4100678183840D-01 -2.1169549596550D-01
184  1.8300000000000D+00  5.1439313744950D-01 -2.0913232846118D-01
185  1.8400000000000D+00  4.8831709129187D-01 -2.0612011577935D-01
186  1.8500000000000D+00  4.6281326450674D-01 -2.0268185421932D-01
187  1.8600000000000D+00  4.3791336346427D-01 -1.9884119297759D-01
188  1.8700000000000D+00  4.1364617052801D-01 -1.9462237708643D-01
189  1.8800000000000D+00  3.9003754702997D-01 -1.9005018898726D-01
190  1.8900000000000D+00  3.6711044863475D-01 -1.8514988883156D-01
191  1.9000000000000D+00  3.4488495187414D-01 -1.7994715366239D-01
192  1.9100000000000D+00  3.2337829276934D-01 -1.7446801554596D-01
193  1.9200000000000D+00  3.0260491553389D-01 -1.6873879882641D-01
194  1.9300000000000D+00  2.8257653252857D-01 -1.6278605657549D-01
195  1.9400000000000D+00  2.6330219349910D-01 -1.5663650639805D-01
196  1.9500000000000D+00  2.4478836453930D-01 -1.5031696569498D-01
197  1.9600000000000D+00  2.2703901571509D-01 -1.4385428651513D-01
198  1.9700000000000D+00  2.1005571660380D-01 -1.3727529012435D-01
199  1.9800000000000D+00  1.9383773967487D-01 -1.3060670141238D-01
200  1.9900000000000D+00  1.7838216980907D-01 -1.2387508326168D-01
201  2.0000000000000D+00  1.6368402037800D-01 -1.1710677101665D-01
202  2.0100000000000D+00  1.4973635410206D-01 -1.1032780715590D-01
203  2.0200000000000D+00  1.3653040853780D-01 -1.0356387631658D-01
204  2.0300000000000D+00  1.2405572519118D-01 -9.6840240780421D-02
205  2.0400000000000D+00  1.1230028134015D-01 -9.0181676534709D-02
206  2.0500000000000D+00  1.0125062395786D-01 -8.3612410072192D-02
207  2.0600000000000D+00  9.0892004780406D-02 -7.7156055975570D-02
208  2.0700000000000D+00  8.1208515630309D-02 -7.0835555494955D-02
209  2.0800000000000D+00  7.2183223351745D-02 -6.4673116159649D-02
210  2.0900000000000D+00  6.3798303441559D-02 -5.8690152564295D-02
211  2.1000000000000D+00  5.6035171309665D-02 -5.2907228488444D-02
212  2.1100000000000D+00  4.8874611163841D-02 -4.7344000336874D-02
213  2.1200000000000D+00  4.2296900515487D-02 -4.2019162174899D-02
214  2.1300000000000D+00  3.6281930738227D-02 -3.6950392313693D-02
215  2.1400000000000D+00  3.0809322432494D-02 -3.2154301608022D-02
216  2.1500000000000D+00  2.5858534280766D-02 -2.7646383627883D-02
217  2.1600000000000D+00  2.1408966518245D-02 -2.3440966618754D-02
218  2.1700000000000D+00  1.7440055947542D-02 -1.9551167575484D-02
219  2.1800000000000D+00  1.3931363854092D-02 -1.5988848335001D-02
220  2.1900000000000D+00  1.0862655964875D-02 -1.2764573800674D-02
221  2.2000000000000D+00  8.2150514792477D-03 -9.8893818697081D-03
222  2.2100000000000D+00  5.9672298439215D-03 -7.3682828872720D-03
223  2.2200000000000D+00  4.0982716293472D-03 -5.2048663254418D-03
224  2.2300000000000D+00  2.5856420007792D-03 -3.3970904085681D-03
225  2.2400000000000D+00  1.4257482021817D-03 -1.9750868279491D-03
226  2.2500000000000D+00  6.0645321069012D-04 -9.5311949098641D-04
227  2.2600000000000D+00  1.0046710425490D-04 -3.1288667548924D-04
228  2.2700000000000D+00 -1.4374824063276D-04  1.5911907508105D-05
229  2.2800000000000D+00 -1.8295383483988D-04  1.1432057208603D-04
230  2.2900000000000D+00 -1.0622706197389D-04  7.9640329348143D-05
231  2.3000000000000D+00 -4.7892837074954D-06  3.8350753427021D-06
232  2.3100000000000D+00  3.3110957124374D-05 -2.6965313712351D-05
233  2.3200000000000D+00  2.4482355064219D-05 -2.0453812367366D-05
234  2.3300000000000D+00 -1.8161372211312D-06  1.3594500279197D-06
235  2.3400000000000D+00 -7.1483245450456D-06  5.4360427461227D-06
236  2.3500000000000D+00 -4.2265600693242D-06  3.2536318294972D-06
237  2.3600000000000D+00  2.4037523725570D-07 -9.4174302465514D-08
238  2.3700000000000D+00  5.0135506211127D-07 -1.9642107814816D-07
239  2.3800000000000D+00  2.2080598917107D-07 -8.6507454959984D-08
240  2.3900000000000D+00  0.0000000000000D+00  0.0000000000000D+00
241  2.4000000000000D+00  0.0000000000000D+00  0.0000000000000D+00
242  2.4100000000000D+00  0.0000000000000D+00  0.0000000000000D+00
243  2.4200000000000D+00  0.0000000000000D+00  0.0000000000000D+00
244  2.4300000000000D+00  0.0000000000000D+00  0.0000000000000D+00
245  2.4400000000000D+00  0.0000000000000D+00  0.0000000000000D+00
246  2.4500000000000D+00  0.0000000000000D+00  0.0000000000000D+00
247  2.4600000000000D+00  0.0000000000000D+00  0.0000000000000D+00
248  2.4700000000000D+00  0.0000000000000D+00  0.0000000000000D+00
249  2.4800000000000D+00  0.0000000000000D+00  0.0000000000000D+00
250  2.4900000000000D+00  0.0000000000000D+00  0.0000000000000D+00
251  2.5000000000000D+00  0.0000000000000D+00  0.0000000000000D+00
252  2.5100000000000D+00  0.0000000000000D+00  0.0000000000000D+00
253  2.5200000000000D+00  0.0000000000000D+00  0.0000000000000D+00
254  2.5300000000000D+00  0.0000000000000D+00  0.0000000000000D+00
255  2.5400000000000D+00  0.0000000000000D+00  0.0000000000000D+00
256  2.5500000000000D+00  0.0000000000000D+00  0.0000000000000D+00
257  2.5600000000000D+00  0.0000000000000D+00  0.0000000000000D+00
258  2.5700000000000D+00  0.0000000000000D+00  0.0000000000000D+00
259  2.5800000000000D+00  0.0000000000000D+00  0.0000000000000D+00
260  2.5900000000000D+00  0.0000000000000D+00  0.0000000000000D+00
261  2.6000000000000D+00  0.0000000000000D+00  0.0000000000000D+00
262  2.6100000000000D+00  0.0000000000000D+00  0.0000000000000D+00
263  2.6200000000000D+00  0.0000000000000D+00  0.0000000000000D+00
264  2.6300000000000D+00  0.0000000000000D+00  0.0000000000000D+00
265  2.6400000000000D+00  0.0000000000000D+00  0.0000000000000D+00
266  2.6500000000000D+00  0.0000000000000D+00  0.0000000000000D+00
267  2.6600000000000D+00  0.0000000000000D+00  0.0000000000000D+00
268  2.6700000000000D+00  0.0000000000000D+00  0.0000000000000D+00
269  2.6800000000000D+00  0.0000000000000D+00  0.0000000000000D+00
270  2.6900000000000D+00  0.0000000000000D+00  0.0000000000000D+00
271  2.7000000000000D+00  0.0000000000000D+00  0.0000000000000D+00
272  2.7100000000000D+00  0.0000000000000D+00  0.0000000000000D+00
273  2.7200000000000D+00  0.0000000000000D+00  0.0000000000000D+00
274  2.7300000000000D+00  0.0000000000000D+00  0.0000000000000D+00
275  2.7400000000000D+00  0.0000000000000D+00  0.0000000000000D+00
276  2.7500000000000D+00  0.0000000000000D+00  0.0000000000000D+00
277  2.7600000000000D+00  0.0000000000000D+00  0.0000000000000D+00
278  2.7700000000000D+00  0.0000000000000D+00  0.0000000000000D+00
279  2.7800000000000D+00  0.0000000000000D+00  0.0000000000000D+00
280  2.7900000000000D+00  0.0000000000000D+00  0.0000000000000D+00
281  2.8000000000000D+00  0.0000000000000D+00  0.0000000000000D+00
282  2.8100000000000D+00  0.0000000000000D+00  0.0000000000000D+00
283  2.8200000000000D+00  0.0000000000000D+00  0.0000000000000D+00
284  2.8300000000000D+00  0.0000000000000D+00  0.0000000000000D+00
285  2.8400000000000D+00  0.0000000000000D+00  0.0000000000000D+00
286  2.8500000000000D+00  0.0000000000000D+00  0.0000000000000D+00
287  2.8600000000000D+00  0.0000000000000D+00  0.0000000000000D+00
288  2.8700000000000D+00  0.0000000000000D+00  0.0000000000000D+00
289  2.8800000000000D+00  0.0000000000000D+00  0.0000000000000D+00
290  2.8900000000000D+00  0.0000000000000D+00  0.0000000000000D+00
291  2.9000000000000D+00  0.0000000000000D+00  0.0000000000000D+00
292  2.9100000000000D+00  0.0000000000000D+00  0.0000000000000D+00
293  2.9200000000000D+00  0.0000000000000D+00  0.0000000000000D+00
294  2.9300000000000D+00  0.0000000000000D+00  0.0000000000000D+00
295  2.9400000000000D+00  0.0000000000000D+00  0.0000000000000D+00
296  2.9500000000000D+00  0.0000000000000D+00  0.0000000000000D+00
297  2.9600000000000D+00  0.0000000000000D+00  0.0000000000000D+00
298  2.9700000000000D+00  0.0000000000000D+00  0.0000000000000D+00
299  2.9800000000000D+00  0.0000000000000D+00  0.0000000000000D+00
300  2.9900000000000D+00  0.0000000000000D+00  0.0000000000000D+00
301  3.0000000000000D+00  0.0000000000000D+00  0.0000000000000D+00
302  3.0100000000000D+00  0.0000000000000D+00  0.0000000000000D+00
303  3.0200000000000D+00  0.0000000000000D+00  0.0000000000000D+00
304  3.0300000000000D+00  0.0000000000000D+00  0.0000000000000D+00
305  3.0400000000000D+00  0.0000000000000D+00  0.0000000000000D+00
306  3.0500000000000D+00  0.0000000000000D+00  0.0000000000000D+00
307  3.0600000000000D+00  0.0000000000000D+00  0.0000000000000D+00
308  3.0700000000000D+00  0.0000000000000D+00  0.0000000000000D+00
309  3.0800000000000D+00  0.0000000000000D+00  0.0000000000000D+00
310  3.0900000000000D+00  0.0000000000000D+00  0.0000000000000D+00
311  3.1000000000000D+00  0.0000000000000D+00  0.0000000000000D+00
312  3.1100000000000D+00  0.0000000000000D+00  0.0000000000000D+00
313  3.1200000000000D+00  0.0000000000000D+00  0.0000000000000D+00
314  3.1300000000000D+00  0.0000000000000D+00  0.0000000000000D+00
315  3.1400000000000D+00  0.0000000000000D+00  0.0000000000000D+00
316  3.1500000000000D+00  0.0000000000000D+00  0.0000000000000D+00
317  3.1600000000000D+00  0.0000000000000D+00  0.0000000000000D+00
318  3.1700000000000D+00  0.0000000000000D+00  0.0000000000000D+00
319  3.1800000000000D+00  0.0000000000000D+00  0.0000000000000D+00
320  3.1900000000000D+00  0.0000000000000D+00  0.0000000000000D+00
321  3.2000000000000D+00  0.0000000000000D+00  0.0000000000000D+00
322  3.2100000000000D+00  0.0000000000000D+00  0.0000000000000D+00
323  3.2200000000000D+00  0.0000000000000D+00  0.0000000000000D+00
324  3.2300000000000D+00  0.0000000000000D+00  0.0000000000000D+00
325  3.2400000000000D+00  0.0000000000000D+00  0.0000000000000D+00
326  3.2500000000000D+00  0.0000000000000D+00  0.0000000000000D+00
327  3.2600000000000D+00  0.0000000000000D+00  0.0000000000000D+00
328  3.2700000000000D+00  0.0000000000000D+00  0.0000000000000D+00
329  3.2800000000000D+00  0.0000000000000D+00  0.0000000000000D+00
330  3.2900000000000D+00  0.0000000000000D+00  0.0000000000000D+00
331  3.3000000000000D+00  0.0000000000000D+00  0.0000000000000D+00
332  3.3100000000000D+00  0.0000000000000D+00  0.0000000000000D+00
333  3.3200000000000D+00  0.0000000000000D+00  0.0000000000000D+00
334  3.3300000000000D+00  0.0000000000000D+00  0.0000000000000D+00
335  3.3400000000000D+00  0.0000000000000D+00  0.0000000000000D+00
336  3.3500000000000D+00  0.0000000000000D+00  0.0000000000000D+00
337  3.3600000000000D+00  0.0000000000000D+00  0.0000000000000D+00
338  3.3700000000000D+00  0.0000000000000D+00  0.0000000000000D+00
339  3.3800000000000D+00  0.0000000000000D+00  0.0000000000000D+00
340  3.3900000000000D+00  0.0000000000000D+00  0.0000000000000D+00
341  3.4000000000000D+00  0.0000000000000D+00  0.0000000000000D+00
342  3.4100000000000D+00  0.0000000000000D+00  0.0000000000000D+00
343  3.4200000000000D+00  0.0000000000000D+00  0.0000000000000D+00
344  3.4300000000000D+00  0.0000000000000D+00  0.0000000000000D+00
345  3.4400000000000D+00  0.0000000000000D+00  0.0000000000000D+00
346  3.4500000000000D+00  0.0000000000000D+00  0.0000000000000D+00
347  3.4600000000000D+00  0.0000000000000D+00  0.0000000000000D+00
348  3.4700000000000D+00  0.0000000000000D+00  0.0000000000000D+00
349  3.4800000000000D+00  0.0000000000000D+00  0.0000000000000D+00
350  3.4900000000000D+00  0.0000000000000D+00  0.0000000000000D+00
351  3.5000000000000D+00  0.0000000000000D+00  0.0000000000000D+00
352  3.5100000000000D+00  0.0000000000000D+00  0.0000000000000D+00
353  3.5200000000000D+00  0.0000000000000D+00  0.0000000000000D+00
354  3.5300000000000D+00  0.0000000000000D+00  0.0000000000000D+00
355  3.5400000000000D+00  0.0000000000000D+00  0.0000000000000D+00
356  3.5500000000000D+00  0.0000000000000D+00  0.0000000000000D+00
357  3.5600000000000D+00  0.0000000000000D+00  0.0000000000000D+00
358  3.5700000000000D+00  0.0000000000000D+00  0.0000000000000D+00
359  3.5800000000000D+00  0.0000000000000D+00  0.0000000000000D+00
360  3.5900000000000D+00  0.0000000000000D+00  0.0000000000000D+00
361  3.6000000000000D+00  0.0000000000000D+00  0.0000000000000D+00
362  3.6100000000000D+00  0.0000000000000D+00  0.0000000000000D+00
363  3.6200000000000D+00  0.0000000000000D+00  0.0000000000000D+00
364  3.6300000000000D+00  0.0000000000000D+00  0.0000000000000D+00
365  3.6400000000000D+00  0.0000000000000D+00  0.0000000000000D+00
366  3.6500000000000D+00  0.0000000000000D+00  0.0000000000000D+00
367  3.6600000000000D+00  0.0000000000000D+00  0.0000000000000D+00
368  3.6700000000000D+00  0.0000000000000D+00  0.0000000000000D+00
369  3.6800000000000D+00  0.0000000000000D+00  0.0000000000000D+00
370  3.6900000000000D+00  0.0000000000000D+00  0.0000000000000D+00
371  3.7000000000000D+00  0.0000000000000D+00  0.0000000000000D+00
372  3.7100000000000D+00  0.0000000000000D+00  0.0000000000000D+00
373  3.7200000000000D+00  0.0000000000000D+00  0.0000000000000D+00
374  3.7300000000000D+00  0.0000000000000D+00  0.0000000000000D+00
375  3.7400000000000D+00  0.0000000000000D+00  0.0000000000000D+00
376  3.7500000000000D+00  0.0000000000000D+00  0.0000000000000D+00
377  3.7600000000000D+00  0.0000000000000D+00  0.0000000000000D+00
378  3.7700000000000D+00  0.0000000000000D+00  0.0000000000000D+00
379  3.7800000000000D+00  0.0000000000000D+00  0.0000000000000D+00
380  3.7900000000000D+00  0.0000000000000D+00  0.0000000000000D+00
381  3.8000000000000D+00  0.0000000000000D+00  0.0000000000000D+00
382  3.8100000000000D+00  0.0000000000000D+00  0.0000000000000D+00
383  3.8200000000000D+00  0.0000000000000D+00  0.0000000000000D+00
384  3.8300000000000D+00  0.0000000000000D+00  0.0000000000000D+00
385  3.8400000000000D+00  0.0000000000000D+00  0.0000000000000D+00
386  3.8500000000000D+00  0.0000000000000D+00  0.0000000000000D+00
387  3.8600000000000D+00  0.0000000000000D+00  0.0000000000000D+00
388  3.8700000000000D+00  0.0000000000000D+00  0.0000000000000D+00
389  3.8800000000000D+00  0.0000000000000D+00  0.0000000000000D+00
390  3.8900000000000D+00  0.0000000000000D+00  0.0000000000000D+00
391  3.9000000000000D+00  0.0000000000000D+00  0.0000000000000D+00
392  3.9100000000000D+00  0.0000000000000D+00  0.0000000000000D+00
393  3.9200000000000D+00  0.0000000000000D+00  0.0000000000000D+00
394  3.9300000000000D+00  0.0000000000000D+00  0.0000000000000D+00
395  3.9400000000000D+00  0.0000000000000D+00  0.0000000000000D+00
396  3.9500000000000D+00  0.0000000000000D+00  0.0000000000000D+00
397  3.9600000000000D+00  0.0000000000000D+00  0.0000000000000D+00
398  3.9700000000000D+00  0.0000000000000D+00  0.0000000000000D+00
399  3.9800000000000D+00  0.0000000000000D+00  0.0000000000000D+00
400  3.9900000000000D+00  0.0000000000000D+00  0.0000000000000D+00
401  4.0000000000000D+00  0.0000000000000D+00  0.0000000000000D+00
402  4.0100000000000D+00  0.0000000000000D+00  0.0000000000000D+00
403  4.0200000000000D+00  0.0000000000000D+00  0.0000000000000D+00
404  4.0300000000000D+00  0.0000000000000D+00  0.0000000000000D+00
405  4.0400000000000D+00  0.0000000000000D+00  0.0000000000000D+00
406  4.0500000000000D+00  0.0000000000000D+00  0.0000000000000D+00
407  4.0600000000000D+00  0.0000000000000D+00  0.0000000000000D+00
408  4.0700000000000D+00  0.0000000000000D+00  0.0000000000000D+00
409  4.0800000000000D+00  0.0000000000000D+00  0.0000000000000D+00
410  4.0900000000000D+00  0.0000000000000D+00  0.0000000000000D+00
411  4.1000000000000D+00  0.0000000000000D+00  0.0000000000000D+00
412  4.1100000000000D+00  0.0000000000000D+00  0.0000000000000D+00
413  4.1200000000000D+00  0.0000000000000D+00  0.0000000000000D+00
414  4.1300000000000D+00  0.0000000000000D+00  0.0000000000000D+00
415  4.1400000000000D+00  0.0000000000000D+00  0.0000000000000D+00
416  4.1500000000000D+00  0.0000000000000D+00  0.0000000000000D+00
417  4.1600000000000D+00  0.0000000000000D+00  0.0000000000000D+00
418  4.1700000000000D+00  0.0000000000000D+00  0.0000000000000D+00
419  4.1800000000000D+00  0.0000000000000D+00  0.0000000000000D+00
420  4.1900000000000D+00  0.0000000000000D+00  0.0000000000000D+00
421  4.2000000000000D+00  0.0000000000000D+00  0.0000000000000D+00
422  4.2100000000000D+00  0.0000000000000D+00  0.0000000000000D+00
423  4.2200000000000D+00  0.0000000000000D+00  0.0000000000000D+00
424  4.2300000000000D+00  0.0000000000000D+00  0.0000000000000D+00
425  4.2400000000000D+00  0.0000000000000D+00  0.0000000000000D+00
426  4.2500000000000D+00  0.0000000000000D+00  0.0000000000000D+00
427  4.2600000000000D+00  0.0000000000000D+00  0.0000000000000D+00
428  4.2700000000000D+00  0.0000000000000D+00  0.0000000000000D+00
429  4.2800000000000D+00  0.0000000000000D+00  0.0000000000000D+00
430  4.2900000000000D+00  0.0000000000000D+00  0.0000000000000D+00
431  4.3000000000000D+00  0.0000000000000D+00  0.0000000000000D+00
432  4.3100000000000D+00  0.0000000000000D+00  0.0000000000000D+00
433  4.3200000000000D+00  0.0000000000000D+00  0.0000000000000D+00
434  4.3300000000000D+00  0.0000000000000D+00  0.0000000000000D+00
435  4.3400000000000D+00  0.0000000000000D+00  0.0000000000000D+00
436  4.3500000000000D+00  0.0000000000000D+00  0.0000000000000D+00
437  4.3600000000000D+00  0.0000000000000D+00  0.0000000000000D+00
438  4.3700000000000D+00  0.0000000000000D+00  0.0000000000000D+00
439  4.3800000000000D+00  0.0000000000000D+00  0.0000000000000D+00
440  4.3900000000000D+00  0.0000000000000D+00  0.0000000000000D+00
441  4.4000000000000D+00  0.0000000000000D+00  0.0000000000000D+00
442  4.4100000000000D+00  0.0000000000000D+00  0.0000000000000D+00
443  4.4200000000000D+00  0.0000000000000D+00  0.0000000000000D+00