<?xml version="1.0" encoding="UTF-8" ?>
<psml version="1.1" energy_unit="hartree" length_unit="bohr"
 uuid="575aab00-53a1-11e8-4a1a-f4f6edd724be"
 xmlns="http://esl.cecam.org/PSML/ns/1.1">
<provenance creator="ONCVPSP-3.3.0+psml-3.3.0-73 (fully-relativistic)"
 date="2018-05-09">
<annotation action="semilocal-pseudopotential-generation"
 action-cont="projectors-generation" />
<input-file name="oncvpsp-input">
<![CDATA[# atsym z nc nv iexc psfile
Sn 50 6 5 -116133 upf
# n l f
1 0 2.0
2 0 2.0
2 1 6.0
3 0 2.0
3 1 6.0
3 2 10.0
4 0 2.0
4 1 6.0
4 2 10.0
5 0 2.0
5 1 2.0
# lmax
2
# l rc ep ncon nbas qcut
0 1.3 0.0 4 8 9.4
1 1.3 0.0 4 8 9.6
2 1.5 0.0 4 8 10.0
# lloc lpopt rc5 dvloc0
4 5 1.3 0.0
# l nproj debl
0 2 1.0
1 2 1.0
2 2 2.0
# icmod fcfact rcfact
3 3.5 1.5
# epsh1 epsh2 depsh
-12.0 12.0 0.02
# rlmax drl
6.0 0.01
 0
]]>
</input-file>
</provenance>
<pseudo-atom-spec atomic-label="Sn" atomic-number="50" z-pseudo="22"
 flavor="Hamann&apos;s oncvpsp" relativity="dirac" spin-dft="no"
 core-corrections="yes">
<annotation pseudo-energy="-214.653013992" />
<exchange-correlation>
<annotation oncvpsp-xc-code="-116133" oncvpsp-xc-type="libxc-interface" />
<libxc-info number-of-functionals="2">
<functional name="Perdew, Burke &amp; Ernzerhof SOL (GGA)" type="exchange"
 id="116" />
<functional name="Perdew, Burke &amp; Ernzerhof SOL (GGA)" type="correlation"
 id="133" />
</libxc-info>
</exchange-correlation>
<valence-configuration total-valence-charge="22">
<shell n="4" l="s" occupation="2" />
<shell n="4" l="p" occupation="6" />
<shell n="4" l="d" occupation="10" />
<shell n="5" l="s" occupation="2" />
<shell n="5" l="p" occupation="2" />
</valence-configuration>
</pseudo-atom-spec>
<grid npts="457">
<annotation type="sampled from oncvpsp log grid"
 recipe="r(i:1..N) = r1*exp(a*(i-1)) + r=0; resampled"
 recipe-cont="r1: scale; a: step" scale="0.100000000000E-04"
 step="0.119285708653E-01" delta="0.500000000000E-02" rmax="44.3197745331" />
<grid-data>
  0.000000000000E+00  5.000886690540E-03  1.010874525337E-02  1.516472982503E-02
  2.019142533776E-02  2.532775607628E-02  3.065384203313E-02  3.579575917496E-02
  4.081475699656E-02  4.598565112489E-02  5.119728757278E-02  5.632368393398E-02
  6.196338756004E-02  6.735948224037E-02  7.322549696456E-02  7.865845337823E-02
  8.449450730050E-02  8.968731867555E-02  9.519926665294E-02  1.010499645334E-01
  1.072602309997E-01  1.125021385341E-01  1.180002229791E-01  1.237670039391E-01
  1.298156128636E-01  1.361598229479E-01  1.428140804965E-01  1.480173298599E-01
  1.534101529953E-01  1.589994567820E-01  1.647923997425E-01  1.707964012112E-01
  1.770191508363E-01  1.834686184287E-01  1.901530641691E-01  1.970810491874E-01
  2.042614465274E-01  2.117034525111E-01  2.168148206685E-01  2.220495976987E-01
  2.274107631856E-01  2.329013686519E-01  2.385245392967E-01  2.442834757734E-01
  2.501814560125E-01  2.562218370865E-01  2.624080571211E-01  2.687436372522E-01
  2.752321836300E-01  2.818773894716E-01  2.886830371630E-01  2.956530004123E-01
  3.027912464542E-01  3.101018383086E-01  3.175889370927E-01  3.252568043899E-01
  3.331098046751E-01  3.411524077992E-01  3.493891915331E-01  3.578248441734E-01
  3.664641672112E-01  3.753120780643E-01  3.843736128771E-01  3.936539293864E-01
  4.031583098575E-01  4.128921640907E-01  4.228610325005E-01  4.279353648905E-01
  4.330705892692E-01  4.382674363404E-01  4.435266455765E-01  4.488489653234E-01
  4.542351529073E-01  4.596859747422E-01  4.652022064391E-01  4.707846329164E-01
  4.764340485114E-01  4.821512570935E-01  4.879370721786E-01  4.937923170448E-01
  4.997178248493E-01  5.057144387475E-01  5.117830120125E-01  5.179244081566E-01
  5.241395010545E-01  5.304291750672E-01  5.367943251680E-01  5.432358570700E-01
  5.497546873548E-01  5.563517436031E-01  5.630279645263E-01  5.697843001006E-01
  5.766217117018E-01  5.835411722423E-01  5.905436663092E-01  5.976301903049E-01
  6.048017525885E-01  6.120593736196E-01  6.194040861030E-01  6.268369351363E-01
  6.343589783579E-01  6.419712860982E-01  6.496749415314E-01  6.574710408298E-01
  6.653606933197E-01  6.733450216396E-01  6.814251618992E-01  6.896022638420E-01
  6.978774910081E-01  7.062520209002E-01  7.147270451510E-01  7.233037696928E-01
  7.319834149291E-01  7.407672159083E-01  7.496564224992E-01  7.586522995692E-01
  7.677561271640E-01  7.769692006900E-01  7.862928310983E-01  7.957283450714E-01
  8.052770852123E-01  8.149404102349E-01  8.247196951577E-01  8.346163314996E-01
  8.446317274776E-01  8.547673082073E-01  8.650245159058E-01  8.754048100966E-01
  8.859096678178E-01  8.965405838316E-01  9.072990708376E-01  9.181866596876E-01
  9.292048996039E-01  9.403553583991E-01  9.516396226999E-01  9.630592981723E-01
  9.746160097504E-01  9.863114018674E-01  9.981471386898E-01  1.010124904354E+00
  1.022246403206E+00  1.034513360045E+00  1.046927520365E+00  1.059490650610E+00
  1.072204538417E+00  1.085070992878E+00  1.098091844793E+00  1.111268946930E+00
  1.124604174293E+00  1.138099424385E+00  1.151756617477E+00  1.165577696887E+00
  1.179564629250E+00  1.193719404801E+00  1.208044037658E+00  1.222540566110E+00
  1.237211052904E+00  1.252057585538E+00  1.267082276565E+00  1.282287263884E+00
  1.297674711050E+00  1.313246807583E+00  1.329005769274E+00  1.344953838505E+00
  1.361093284567E+00  1.377426403982E+00  1.393955520830E+00  1.410682987080E+00
  1.427611182925E+00  1.444742517120E+00  1.462079427325E+00  1.479624380453E+00
  1.497379873019E+00  1.515348431495E+00  1.533532612673E+00  1.551935004025E+00
  1.570558224073E+00  1.589404922762E+00  1.608477781835E+00  1.627779515217E+00
  1.647312869400E+00  1.667080623833E+00  1.687085591319E+00  1.707330618414E+00
  1.727818585835E+00  1.748552408865E+00  1.769535037772E+00  1.790769458225E+00
  1.812258691724E+00  1.834005796024E+00  1.856013865577E+00  1.878286031964E+00
  1.900825464347E+00  1.923635369919E+00  1.946718994358E+00  1.970079622291E+00
  1.993720577758E+00  2.017645224691E+00  2.041856967388E+00  2.066359250996E+00
  2.091155562008E+00  2.116249428752E+00  2.141644421897E+00  2.167344154960E+00
  2.193352284820E+00  2.219672512237E+00  2.246308582384E+00  2.273264285373E+00
  2.300543456797E+00  2.328149978279E+00  2.356087778018E+00  2.384360831355E+00
  2.412973161331E+00  2.441928839267E+00  2.471231985338E+00  2.500886769162E+00
  2.530897410392E+00  2.561268179317E+00  2.592003397468E+00  2.623107438238E+00
  2.654584727497E+00  2.686439744227E+00  2.718677021158E+00  2.751301145412E+00
  2.784316759156E+00  2.817728560266E+00  2.851541302990E+00  2.885759798625E+00
  2.920388916209E+00  2.955433583203E+00  2.990898786202E+00  3.026789571636E+00
  3.063111046496E+00  3.099868379054E+00  3.137066799603E+00  3.174711601198E+00
  3.212808140412E+00  3.251361838097E+00  3.290378180154E+00  3.329862718316E+00
  3.369821070936E+00  3.410258923787E+00  3.451182030873E+00  3.492596215243E+00
  3.534507369826E+00  3.576921458264E+00  3.619844515763E+00  3.663282649952E+00
  3.707242041752E+00  3.751728946253E+00  3.796749693608E+00  3.842310689931E+00
  3.888418418210E+00  3.935079439229E+00  3.982300392499E+00  4.030087997209E+00
  4.078449053176E+00  4.127390441814E+00  4.176919127116E+00  4.227042156641E+00
  4.277766662521E+00  4.329099862471E+00  4.381049060821E+00  4.433621649551E+00
  4.486825109345E+00  4.540667010657E+00  4.595155014785E+00  4.650296874963E+00
  4.706100437462E+00  4.762573642712E+00  4.819724526424E+00  4.877561220741E+00
  4.936091955390E+00  4.995325058855E+00  5.055268959561E+00  5.115932187076E+00
  5.177323373321E+00  5.239451253801E+00  5.302324668846E+00  5.365952564873E+00
  5.430343995651E+00  5.495508123599E+00  5.561454221082E+00  5.628191671735E+00
  5.695729971796E+00  5.764078731457E+00  5.833247676235E+00  5.903246648350E+00
  5.974085608130E+00  6.045774635427E+00  6.118323931053E+00  6.191743818225E+00
  6.266044744044E+00  6.341237280972E+00  6.417332128344E+00  6.494340113884E+00
  6.572272195251E+00  6.651139461594E+00  6.730953135133E+00  6.811724572755E+00
  6.893465267628E+00  6.976186850839E+00  7.059901093049E+00  7.144619906166E+00
  7.230355345040E+00  7.317119609180E+00  7.404925044490E+00  7.493784145024E+00
  7.583709554765E+00  7.674714069422E+00  7.766810638255E+00  7.860012365914E+00
  7.954332514305E+00  8.049784504477E+00  8.146381918530E+00  8.244138501553E+00
  8.343068163571E+00  8.443184981534E+00  8.544503201313E+00  8.647037239728E+00
  8.750801686605E+00  8.855811306844E+00  8.962081042526E+00  9.069626015037E+00
  9.178461527217E+00  9.288603065544E+00  9.400066302330E+00  9.512867097958E+00
  9.627021503134E+00  9.742545761171E+00  9.859456310305E+00  9.977769786029E+00
  1.009750302346E+01  1.021867305974E+01  1.034129713646E+01  1.046539270210E+01
  1.059097741452E+01  1.071806914350E+01  1.084668597322E+01  1.097684620490E+01
  1.110856835936E+01  1.124187117967E+01  1.137677363382E+01  1.151329491743E+01
  1.165145445644E+01  1.179127190992E+01  1.193276717284E+01  1.207596037891E+01
  1.222087190346E+01  1.236752236630E+01  1.251593263469E+01  1.266612382631E+01
  1.281811731223E+01  1.297193471997E+01  1.312759793661E+01  1.328512911185E+01
  1.344455066119E+01  1.360588526913E+01  1.376915589236E+01  1.393438576307E+01
  1.410159839222E+01  1.427081757293E+01  1.444206738380E+01  1.461537219241E+01
  1.479075665872E+01  1.496824573862E+01  1.514786468749E+01  1.532963906374E+01
  1.551359473250E+01  1.569975786929E+01  1.588815496372E+01  1.607881282329E+01
  1.627175857717E+01  1.646701968009E+01  1.666462391625E+01  1.686459940325E+01
  1.706697459609E+01  1.727177829124E+01  1.747903963074E+01  1.768878810631E+01
  1.790105356358E+01  1.811586620634E+01  1.833325660082E+01  1.855325568003E+01
  1.877589474819E+01  1.900120548517E+01  1.922921995099E+01  1.945997059040E+01
  1.969349023749E+01  1.992981212034E+01  2.016896986578E+01  2.041099750417E+01
  2.065592947422E+01  2.090380062791E+01  2.115464623545E+01  2.140850199027E+01
  2.166540401416E+01  2.192538886233E+01  2.218849352867E+01  2.245475545102E+01
  2.272421251643E+01  2.299690306663E+01  2.327286590343E+01  2.355214029427E+01
  2.383476597780E+01  2.412078316953E+01  2.441023256757E+01  2.470315535838E+01
  2.499959322268E+01  2.529958834135E+01  2.560318340145E+01  2.591042160226E+01
  2.622134666149E+01  2.653600282143E+01  2.685443485529E+01  2.717668807355E+01
  2.750280833043E+01  2.783284203040E+01  2.816683613476E+01  2.850483816838E+01
  2.884689622640E+01  2.919305898112E+01  2.954337568889E+01  2.989789619716E+01
  3.025667095152E+01  3.061975100294E+01  3.098718801498E+01  3.135903427116E+01
  3.173534268241E+01  3.211616679460E+01  3.250156079613E+01  3.289157952569E+01
  3.328627847999E+01  3.368571382175E+01  3.408994238762E+01  3.449902169627E+01
  3.491300995662E+01  3.533196607610E+01  3.575594966902E+01  3.618502106504E+01
  3.661924131782E+01  3.705867221364E+01  3.750337628020E+01  3.795341679556E+01
  3.840885779711E+01  3.886976409068E+01  3.933620125976E+01  3.980823567488E+01
  4.028593450298E+01  4.076936571702E+01  4.125859810562E+01  4.175370128289E+01
  4.225474569828E+01  4.276180264666E+01  4.327494427842E+01  4.379424360976E+01
  4.431977453308E+01
</grid-data>
</grid>
<valence-charge total-charge="22" is-unscreening-charge="yes"
 rescaled-to-z-pseudo="no">
<radfunc>
<data npts="457">
  5.176034878113E+00  5.180489088061E+00  5.194235609300E+00  5.216998043466E+00
  5.248662099003E+00  5.290326075834E+00  5.343474052339E+00  5.404398563604E+00
  5.472984718698E+00  5.553077405057E+00  5.643497048117E+00  5.741945663671E+00
  5.861158708355E+00  5.985932930080E+00  6.133470473829E+00  6.281184101607E+00
  6.451727601635E+00  6.613819523128E+00  6.796538297416E+00  7.002506659043E+00
  7.234675958548E+00  7.441492477724E+00  7.669078144128E+00  7.919498891257E+00
  8.195016423728E+00  8.498103009276E+00  8.831456026995E+00  9.103090120537E+00
  9.394726430291E+00  9.707777662299E+00  1.004374006184E+01  1.040419424858E+01
  1.079080490367E+01  1.120531897972E+01  1.164956203869E+01  1.212543224728E+01
  1.263489147422E+01  1.317995283815E+01  1.356411641547E+01  1.396562382007E+01
  1.438508498766E+01  1.482310477045E+01  1.528027812636E+01  1.575718456506E+01
  1.625438177452E+01  1.677239834834E+01  1.731172553171E+01  1.787280790238E+01
  1.845603290337E+01  1.906171914600E+01  1.969010340653E+01  2.034132624698E+01
  2.101541620159E+01  2.171227248583E+01  2.243164620463E+01  2.317312006288E+01
  2.393608661319E+01  2.471972511628E+01  2.552297713726E+01  2.634452105817E+01
  2.718274575425E+01  2.803572375806E+01  2.890118432302E+01  2.977648689556E+01
  3.065859561198E+01  3.154405555162E+01  3.242897159994E+01  3.286988366653E+01
  3.330899090030E+01  3.374567555911E+01  3.417928999820E+01  3.460915661222E+01
  3.503456790126E+01  3.545478667201E+01  3.586904638572E+01  3.627655166451E+01
  3.667647896790E+01  3.706797745126E+01  3.745017001786E+01  3.782215457590E+01
  3.818300551160E+01  3.853177538892E+01  3.886749688573E+01  3.918918497546E+01
  3.949583936239E+01  3.978644717723E+01  4.005998593847E+01  4.031542678335E+01
  4.055173797022E+01  4.076788865231E+01  4.096285292033E+01  4.113561410905E+01
  4.128516936006E+01  4.141053443001E+01  4.151074873054E+01  4.158488058251E+01
  4.163203266387E+01  4.165134762664E+01  4.164201385469E+01  4.160327133027E+01
  4.153441757310E+01  4.143481361221E+01  4.130388994670E+01  4.114115244796E+01
  4.094618815251E+01  4.071867089126E+01  4.045836669831E+01  4.016513893979E+01
  3.983895310155E+01  3.947988117297E+01  3.908810556368E+01  3.866392249002E+01
  3.820774476896E+01  3.772010395916E+01  3.720165179151E+01  3.665316083522E+01
  3.607552435063E+01  3.546975528531E+01  3.483698437738E+01  3.417845733759E+01
  3.349553109076E+01  3.278966906692E+01  3.206243554322E+01  3.131548904885E+01
  3.055057485728E+01  2.976951660231E+01  2.897420706684E+01  2.816659820584E+01
  2.734869047726E+01  2.652252156610E+01  2.569015459836E+01  2.485366595121E+01
  2.401513277493E+01  2.317662034946E+01  2.234016940437E+01  2.150778353486E+01
  2.068141684879E+01  1.986296197946E+01  1.905423859686E+01  1.825698254586E+01
  1.747283573344E+01  1.670333687854E+01  1.594991322809E+01  1.521387333044E+01
  1.449640094431E+01  1.379855014651E+01  1.312124168586E+01  1.246526061500E+01
  1.183125521450E+01  1.121973720763E+01  1.063108324724E+01  1.006553764078E+01
  9.523216263873E+00  9.004111599072E+00  8.508098823001E+00  8.034942853401E+00
  7.584306256966E+00  7.155757909685E+00  6.748782293640E+00  6.362789307867E+00
  5.997124465997E+00  5.651079349942E+00  5.323903533572E+00  5.014821608511E+00
  4.723052361038E+00  4.447815296495E+00  4.188336927767E+00  3.943856133635E+00
  3.713628903357E+00  3.496932293528E+00  3.293067581857E+00  3.101362589323E+00
  2.921173159355E+00  2.751883799301E+00  2.592906855713E+00  2.443678604976E+00
  2.303654303012E+00  2.172308944853E+00  2.049137666868E+00  1.933656091292E+00
  1.825400523343E+00  1.723928014496E+00  1.628816305086E+00  1.539663658932E+00
  1.456088602179E+00  1.377729577950E+00  1.304244527826E+00  1.235310410491E+00
  1.170622667242E+00  1.109894643390E+00  1.052856973890E+00  9.992569408776E-01
  9.488578101207E-01  9.014381527702E-01  8.567911581628E-01  8.147239428479E-01
  7.750568604547E-01  7.376228164866E-01  7.022665916423E-01  6.688441768049E-01
  6.372221224122E-01  6.072769045297E-01  5.788943095829E-01  5.519688393658E-01
  5.264031376371E-01  5.021074393257E-01  4.789990431091E-01  4.570018078884E-01
  4.360456734687E-01  4.160662055564E-01  3.970041650132E-01  3.788051011496E-01
  3.614189687059E-01  3.447997680511E-01  3.289052080293E-01  3.136963907980E-01
  2.991375179354E-01  2.851956170364E-01  2.718402879735E-01  2.590434679712E-01
  2.467792146153E-01  2.350235059120E-01  2.237540565047E-01  2.129501491602E-01
  2.025924806430E-01  1.926630211155E-01  1.831448862130E-01  1.740222209709E-01
  1.652800948024E-01  1.569044067532E-01  1.488818002935E-01  1.411995869117E-01
  1.338456778680E-01  1.268085234173E-01  1.200770589012E-01  1.136406571184E-01
  1.074890864207E-01  1.016124740099E-01  9.600127394481E-02  9.064623939784E-02
  8.553839872946E-02  8.066903497941E-02  7.602966840066E-02  7.161204169018E-02
  6.740810759647E-02  6.341001860963E-02  5.961011846375E-02  5.600093520508E-02
  5.257517560141E-02  4.932572068968E-02  4.624562227881E-02  4.332810024398E-02
  4.056654046566E-02  3.795449328896E-02  3.548567238167E-02  3.315395390082E-02
  3.095337587705E-02  2.887813775541E-02  2.692260000938E-02  2.508128379845E-02
  2.334887061558E-02  2.172020189114E-02  2.019027852452E-02  1.875426031993E-02
  1.740746530720E-02  1.614536893213E-02  1.496360310368E-02  1.385795508759E-02
  1.282436623794E-02  1.185893055954E-02  1.095789309548E-02  1.011764813546E-02
  9.334737241765E-03  8.605847091176E-03  7.927807132621E-03  7.297587062020E-03
  6.712294117533E-03  6.169170200303E-03  5.665588827681E-03  5.199051927824E-03
  4.767186486394E-03  4.367741057788E-03  3.998582154843E-03  3.657690532301E-03
  3.343157380333E-03  3.053180445208E-03  2.786060094705E-03  2.540195346002E-03
  2.314079873768E-03  2.106298015792E-03  1.915520792920E-03  1.740501959309E-03
  1.580074098039E-03  1.433144776000E-03  1.298692770830E-03  1.175764381329E-03
  1.063469831489E-03  9.609797769102E-04  8.675219210307E-04  7.823777472760E-04
  7.048793719389E-04  6.344065213859E-04  5.703836360163E-04  5.122771023176E-04
  4.595926133581E-04  4.118726571468E-04  3.686941314658E-04  3.296660830570E-04
  2.944275684116E-04  2.626456328722E-04  2.340134043135E-04  2.082482973100E-04
  1.850903234304E-04  1.643005031060E-04  1.456593744052E-04  1.289655939982E-04
  1.140346256050E-04  1.006975112821E-04  8.879972101204E-05  7.820007619667E-05
  6.876974282667E-05  6.039129028505E-05  5.295781194395E-05  4.637210391995E-05
  4.054589856051E-05  3.539914943822E-05  3.085936482651E-05  2.686098681741E-05
  2.334481341781E-05  2.025746112370E-05  1.755086562187E-05  1.518181840569E-05
  1.311153721621E-05  1.130526833313E-05  9.731918842355E-06  8.363717100582E-06
  7.175899702030E-06  6.146423330908E-06  5.255699955514E-06  4.486353887743E-06
  3.822999295790E-06  3.252036819059E-06  2.761467993223E-06  2.340726250708E-06
  1.980523317900E-06  1.672709885531E-06  1.410149483073E-06  1.186604541683E-06
  9.966336834247E-07  8.354993269546E-07  6.990847516620E-07  5.838198131925E-07
  4.866145532696E-07  4.047999955894E-07  3.360754671610E-07  2.784618306358E-07
  2.302600577855E-07  1.900146172193E-07  1.564811905632E-07  1.285982705772E-07
  1.054622319803E-07  8.630550104725E-08  7.047748329923E-08  5.742793983112E-08
  4.669253200164E-08  3.788028139305E-08  3.066271715868E-08  2.476450617614E-08
  1.995538288064E-08  1.604321531683E-08  1.286806195975E-08  1.029709020841E-08
  8.220242340275E-09  6.546548153240E-09  5.200995640956E-09  4.121881932057E-09
  3.258576468250E-09  2.569637090411E-09  2.021227433620E-09  1.585790885273E-09
  1.240942415261E-09  9.685449192462E-10  7.539413965212E-10  5.853183792893E-10
  4.531796019958E-10  3.499120047218E-10  2.694288558050E-10  2.068771036675E-10
  1.583980697555E-10  1.209323128997E-10  9.206096572655E-11  6.987709779598E-11
  5.288172628862E-11  3.989999856594E-11  3.001383411846E-11  2.250795600760E-11
  1.682678119301E-11  1.254009024793E-11  9.315773079222E-12  6.898259817215E-12
  5.091504902956E-12  3.745606081896E-12  2.746315803501E-12  2.006846654844E-12
  1.461490220806E-12  1.060664655021E-12  7.670840552685E-13  5.528056529619E-13
  3.969615195499E-13  2.840221918819E-13  2.024721764427E-13  1.438032427574E-13
  1.017520242454E-13  7.172474956701E-14  5.036477934025E-14  3.522871496204E-14
  2.454474059490E-14  1.703301087322E-14  1.177267161653E-14  8.103792342047E-15
  5.555332028007E-15  3.792439770145E-15  2.578057267505E-15  1.745056940799E-15
  1.176108845592E-15  7.891939105698E-16  5.272242457797E-16  3.506382770200E-16
  2.321411593786E-16  1.529854529664E-16  1.003527503552E-16  6.551870043294E-17
  4.257292777476E-17  2.753018323050E-17  1.771604641538E-17  1.134438898874E-17
  7.228133269073E-18  4.582218085619E-18  2.890037004682E-18  1.813352462842E-18
  1.131839847405E-18  7.027227475493E-19  4.339615177104E-19  2.665372732387E-19
  1.548503966409E-19  9.419293438867E-20  5.697242347765E-20  3.426247646975E-20
  0.000000000000E+00  0.000000000000E+00  0.000000000000E+00  0.000000000000E+00
  0.000000000000E+00  0.000000000000E+00  0.000000000000E+00  0.000000000000E+00
  0.000000000000E+00
</data>
</radfunc>
</valence-charge>
<pseudocore-charge matching-radius="0.543235857070"
 number-of-continuous-derivatives="4">
<annotation model-charge-form="Teter function with specified parameters" />
<radfunc>
<data npts="290">
  1.434543487586E+02  1.434372785528E+02  1.433846115502E+02  1.432974513471E+02
  1.431763080137E+02  1.430170867363E+02  1.428142753501E+02  1.425821956994E+02
  1.423214470242E+02  1.420176402640E+02  1.416755432548E+02  1.413041223257E+02
  1.408558161059E+02  1.403882812362E+02  1.398376431749E+02  1.392886922412E+02
  1.386577682091E+02  1.380609141328E+02  1.373913256114E+02  1.366405486448E+02
  1.357992565355E+02  1.350541904624E+02  1.342389421069E+02  1.333473853809E+02
  1.323729610789E+02  1.313086684513E+02  1.301470623384E+02  1.292072685306E+02
  1.282048240962E+02  1.271361140838E+02  1.259974014755E+02  1.247848376816E+02
  1.234944761675E+02  1.221222896641E+02  1.206641914517E+02  1.191160612446E+02
  1.174737762353E+02  1.157332478804E+02  1.145163305469E+02  1.132528048746E+02
  1.119415440226E+02  1.105814617059E+02  1.091715210290E+02  1.077107440733E+02
  1.061982222666E+02  1.046331275533E+02  1.030147243790E+02  1.013423824977E+02
  9.961559059744E+01  9.783397073351E+01  9.599729354261E+01  9.410549419924E+01
  9.215868905761E+01  9.015719290419E+01  8.810153672402E+01  8.599248586061E+01
  8.383105842216E+01  8.161854375790E+01  7.935652079692E+01  7.704687600724E+01
  7.469182069727E+01  7.229390734335E+01  6.985604458825E+01  6.738151051557E+01
  6.487396376561E+01  6.233745202057E+01  5.977641735152E+01  5.848820040393E+01
  5.719569788903E+01  5.589957603780E+01  5.460052525504E+01  5.329925976648E+01
  5.199651717698E+01  5.069305793525E+01  4.938966470065E+01  4.808714160795E+01
  4.678631342582E+01  4.548802460518E+01  4.419313821384E+01  4.290253475403E+01
  4.161711085988E+01  4.033777787230E+01  3.906546028914E+01  3.780109408909E+01
  3.654562492827E+01  3.530000620926E+01  3.406519702295E+01  3.284215996429E+01
  3.163185882402E+01  3.043525615929E+01  2.925331074708E+01  2.808697492529E+01
  2.693719182764E+01  2.580489251950E+01  2.469099304304E+01  2.359639138140E+01
  2.252196435285E+01  2.146856444712E+01  2.043701661752E+01  1.942811504400E+01
  1.844261988314E+01  1.748125402307E+01  1.654469986195E+01  1.563359613048E+01
  1.474853477957E+01  1.389005795579E+01  1.305865508800E+01  1.225476010941E+01
  1.147874883997E+01  1.073093655477E+01  1.001157576395E+01  9.320854230137E+00
  8.658893248895E+00  8.025746217497E+00  7.421397516262E+00  6.845761725813E+00
  6.298683202062E+00  5.779936028945E+00  5.289224366772E+00  4.826183211466E+00
  4.390379577051E+00  3.981314110422E+00  3.598423143737E+00  3.241081185720E+00
  2.908603848808E+00  2.600251204386E+00  2.315231553424E+00  2.052705594715E+00
  1.811790967604E+00  1.591567140769E+00  1.391080613234E+00  1.209350388554E+00
  1.045373677980E+00  8.981317836612E-01  7.665961084810E-01  6.497342352336E-01
  5.465160145211E-01  4.559195981771E-01  3.769373532500E-01  3.085815907469E-01
  2.498900435153E-01  1.999310289127E-01  1.578082343310E-01  1.226650672597E-01
  9.368851638421E-02  7.011247622822E-02  5.122049500913E-02  3.634791361477E-02
  2.488337281776E-02  1.626967587986E-02  1.000400438632E-02  5.637496281193E-03
  2.774206410650E-03  1.069481158934E-03  2.277896975877E-04  6.466627996569E-08
  1.806144628289E-04  6.036774450203E-04  1.139694957978E-03  1.691384945332E-03
  2.189700766024E-03  2.589760557017E-03  2.866830951651E-03  3.012445150353E-03
  3.030729288648E-03  2.935002883393E-03  2.744709072862E-03  2.482718693408E-03
  2.173039325964E-03  1.838946737754E-03  1.501542129608E-03  1.178724803431E-03
  8.845568269566E-04  6.289845215922E-04  4.178716237414E-04  2.532911951672E-04
  1.340181179800E-04  5.616152488505E-05  1.387687343690E-05  1.005174538342E-07
  7.255353398854E-06  2.788407333568E-05  5.517625672773E-05  8.336639091550E-05
  1.079912595219E-04  1.260062792733E-04  1.357706093444E-04  1.369195724460E-04
  1.301495880685E-04  1.169450475449E-04  9.927816038178E-05  7.931177506334E-05
  5.913173476464E-05  4.052987239714E-05  2.485184720591E-05  1.291636111987E-05
  5.004609046809E-06  9.118441418170E-07  4.732584111950E-08  1.565166571719E-06
  4.507002744567E-06  7.938051579245E-06  1.106079680113E-05  1.329486499391E-05
  1.431701964412E-05  1.406090755665E-05  1.268151072093E-05  1.049351946722E-05
  7.895536385837E-06  5.292854667754E-06  3.030503861020E-06  1.345565349846E-06
  3.439099198976E-07  2.146079690144E-09  0.000000000000E+00  0.000000000000E+00
  0.000000000000E+00  0.000000000000E+00  0.000000000000E+00  0.000000000000E+00
  0.000000000000E+00  0.000000000000E+00  0.000000000000E+00  0.000000000000E+00
  0.000000000000E+00  0.000000000000E+00  0.000000000000E+00  0.000000000000E+00
  0.000000000000E+00  0.000000000000E+00  0.000000000000E+00  0.000000000000E+00
  0.000000000000E+00  0.000000000000E+00  0.000000000000E+00  0.000000000000E+00
  0.000000000000E+00  0.000000000000E+00  0.000000000000E+00  0.000000000000E+00
  0.000000000000E+00  0.000000000000E+00  0.000000000000E+00  0.000000000000E+00
  0.000000000000E+00  0.000000000000E+00  0.000000000000E+00  0.000000000000E+00
  0.000000000000E+00  0.000000000000E+00  0.000000000000E+00  0.000000000000E+00
  0.000000000000E+00  0.000000000000E+00  0.000000000000E+00  0.000000000000E+00
  0.000000000000E+00  0.000000000000E+00  0.000000000000E+00  0.000000000000E+00
  0.000000000000E+00  0.000000000000E+00  0.000000000000E+00  0.000000000000E+00
  0.000000000000E+00  0.000000000000E+00  0.000000000000E+00  0.000000000000E+00
  0.000000000000E+00  0.000000000000E+00  0.000000000000E+00  0.000000000000E+00
  0.000000000000E+00  0.000000000000E+00  0.000000000000E+00  0.000000000000E+00
  0.000000000000E+00  0.000000000000E+00  0.000000000000E+00  0.000000000000E+00
  0.000000000000E+00  0.000000000000E+00  0.000000000000E+00  0.000000000000E+00
  0.000000000000E+00  0.000000000000E+00  0.000000000000E+00  0.000000000000E+00
  0.000000000000E+00  0.000000000000E+00
</data>
</radfunc>
</pseudocore-charge>
<semilocal-potentials set="lj">
<slps n="4" l="s" j="0.5" rc="1.31324680758" eref="-4.91113223456">
<radfunc>
<data npts="290">
 -1.835341708658E+01 -1.835576100033E+01 -1.836299067217E+01 -1.837494855966E+01
 -1.839155485784E+01 -1.841335634260E+01 -1.844108615233E+01 -1.847276246275E+01
 -1.850828157449E+01 -1.854957258556E+01 -1.859594765076E+01 -1.864615438089E+01
 -1.870655578462E+01 -1.876931783060E+01 -1.884293581863E+01 -1.891600698867E+01
 -1.899959559622E+01 -1.907828464320E+01 -1.916611917352E+01 -1.926404909183E+01
 -1.937309373275E+01 -1.946905968222E+01 -1.957341738394E+01 -1.968677366412E+01
 -1.980975383098E+01 -1.994299661179E+01 -2.008714767002E+01 -2.020280753847E+01
 -2.032523439518E+01 -2.045469033864E+01 -2.059142808167E+01 -2.073568738736E+01
 -2.088769107465E+01 -2.104764057683E+01 -2.121571104091E+01 -2.139204596228E+01
 -2.157675135630E+01 -2.176988947729E+01 -2.190334117937E+01 -2.204053675396E+01
 -2.218145342860E+01 -2.232605507777E+01 -2.247429119171E+01 -2.262609582433E+01
 -2.278138652484E+01 -2.294006325814E+01 -2.310200731959E+01 -2.326708025009E+01
 -2.343512275797E+01 -2.360595365447E+01 -2.377936881005E+01 -2.395514013891E+01
 -2.413301461956E+01 -2.431271335930E+01 -2.449393071073E+01 -2.467633344850E+01
 -2.485956001460E+01 -2.504321984044E+01 -2.522689275413E+01 -2.541012848117E+01
 -2.559244624714E+01 -2.577333449051E+01 -2.595225069435E+01 -2.612862134554E+01
 -2.630184203050E+01 -2.647127767712E+01 -2.663626295277E+01 -2.671687064621E+01
 -2.679610282976E+01 -2.687386810723E+01 -2.695007333007E+01 -2.702462363134E+01
 -2.709742246320E+01 -2.716837163784E+01 -2.723737137207E+01 -2.730432033576E+01
 -2.736911570424E+01 -2.743165321479E+01 -2.749182722757E+01 -2.754953079099E+01
 -2.760465571177E+01 -2.765709263004E+01 -2.770673109939E+01 -2.775345967243E+01
 -2.779716599179E+01 -2.783773688696E+01 -2.787505847709E+01 -2.790901628000E+01
 -2.793949532759E+01 -2.796638028786E+01 -2.798955559365E+01 -2.800890557832E+01
 -2.802431461852E+01 -2.803566728398E+01 -2.804284849459E+01 -2.804574368463E+01
 -2.804423897420E+01 -2.803822134769E+01 -2.802757883924E+01 -2.801220072490E+01
 -2.799197772129E+01 -2.796680219039E+01 -2.793656835013E+01 -2.790117249029E+01
 -2.786051319320E+01 -2.781449155880E+01 -2.776301143337E+01 -2.770597964148E+01
 -2.764330622046E+01 -2.757490465693E+01 -2.750069212481E+01 -2.742058972447E+01
 -2.733452272262E+01 -2.724242079282E+01 -2.714421825659E+01 -2.703985432546E+01
 -2.692927334429E+01 -2.681242503694E+01 -2.668926475532E+01 -2.655975373369E+01
 -2.642385935028E+01 -2.628155539907E+01 -2.613282237531E+01 -2.597764777899E+01
 -2.581602644152E+01 -2.564796088176E+01 -2.547346169893E+01 -2.529254801112E+01
 -2.510524794952E+01 -2.491159922063E+01 -2.471164975001E+01 -2.450545842388E+01
 -2.429309594678E+01 -2.407464583643E+01 -2.385020557955E+01 -2.361988797557E+01
 -2.338382269834E+01 -2.314215810930E+01 -2.289506335892E+01 -2.264273081651E+01
 -2.238537887162E+01 -2.212325515266E+01 -2.185664021026E+01 -2.158585171360E+01
 -2.131124920696E+01 -2.103323947060E+01 -2.075228252440E+01 -2.046889830308E+01
 -2.018367401774E+01 -1.989727219949E+01 -1.961043939469E+01 -1.932401544864E+01