<?xml version="1.0" encoding="UTF-8" ?>
<psml version="1.1" energy_unit="hartree" length_unit="bohr"
 uuid="5869e300-539f-11e8-516a-fee4f7ff6512"
 xmlns="http://esl.cecam.org/PSML/ns/1.1">
<provenance creator="ONCVPSP-3.3.0+psml-3.3.0-73 (fully-relativistic)"
 date="2018-05-09">
<annotation action="semilocal-pseudopotential-generation"
 action-cont="projectors-generation" />
<input-file name="oncvpsp-input">
<![CDATA[# atsym z nc nv iexc psfile
Sn 50 8 3 -116133 upf
# n l f
1 0 2.0
2 0 2.0
2 1 6.0
3 0 2.0
3 1 6.0
3 2 10.0
4 0 2.0
4 1 6.0
4 2 10.0
5 0 2.0
5 1 2.0
# lmax
2
# l rc ep ncon nbas qcut
0 2.25 0.0 4 7 3.4
1 2.6 0.0 4 7 3.4
2 1.85 0.0 4 8 8.4
# lloc lpopt rc5 dvloc0
4 5 1.85 0.0
# l nproj debl
0 2 1.9
1 2 2.5
2 2 2.0
# icmod fcfact
3 6.5 1.31
# epsh1 epsh2 depsh
-12.0 12.0 0.02
# rlmax drl
6.0 0.01
 0
]]>
</input-file>
</provenance>
<pseudo-atom-spec atomic-label="Sn" atomic-number="50" z-pseudo="14"
 flavor="Hamann&apos;s oncvpsp" relativity="dirac" spin-dft="no"
 core-corrections="yes">
<annotation pseudo-energy="-67.5356925284" />
<exchange-correlation>
<annotation oncvpsp-xc-code="-116133" oncvpsp-xc-type="libxc-interface" />
<libxc-info number-of-functionals="2">
<functional name="Perdew, Burke &amp; Ernzerhof SOL (GGA)" type="exchange"
 id="116" />
<functional name="Perdew, Burke &amp; Ernzerhof SOL (GGA)" type="correlation"
 id="133" />
</libxc-info>
</exchange-correlation>
<valence-configuration total-valence-charge="14">
<shell n="4" l="d" occupation="10" />
<shell n="5" l="s" occupation="2" />
<shell n="5" l="p" occupation="2" />
</valence-configuration>
</pseudo-atom-spec>
<grid npts="457">
<annotation type="sampled from oncvpsp log grid"
 recipe="r(i:1..N) = r1*exp(a*(i-1)) + r=0; resampled"
 recipe-cont="r1: scale; a: step" scale="0.100000000000E-04"
 step="0.119285708653E-01" delta="0.500000000000E-02" rmax="44.3197745331" />
<grid-data>
  0.000000000000E+00  5.000886690540E-03  1.010874525337E-02  1.516472982503E-02
  2.019142533776E-02  2.532775607628E-02  3.065384203313E-02  3.579575917496E-02
  4.081475699656E-02  4.598565112489E-02  5.119728757278E-02  5.632368393398E-02
  6.196338756004E-02  6.735948224037E-02  7.322549696456E-02  7.865845337823E-02
  8.449450730050E-02  8.968731867555E-02  9.519926665294E-02  1.010499645334E-01
  1.072602309997E-01  1.125021385341E-01  1.180002229791E-01  1.237670039391E-01
  1.298156128636E-01  1.361598229479E-01  1.428140804965E-01  1.480173298599E-01
  1.534101529953E-01  1.589994567820E-01  1.647923997425E-01  1.707964012112E-01
  1.770191508363E-01  1.834686184287E-01  1.901530641691E-01  1.970810491874E-01
  2.042614465274E-01  2.117034525111E-01  2.168148206685E-01  2.220495976987E-01
  2.274107631856E-01  2.329013686519E-01  2.385245392967E-01  2.442834757734E-01
  2.501814560125E-01  2.562218370865E-01  2.624080571211E-01  2.687436372522E-01
  2.752321836300E-01  2.818773894716E-01  2.886830371630E-01  2.956530004123E-01
  3.027912464542E-01  3.101018383086E-01  3.175889370927E-01  3.252568043899E-01
  3.331098046751E-01  3.411524077992E-01  3.493891915331E-01  3.578248441734E-01
  3.664641672112E-01  3.753120780643E-01  3.843736128771E-01  3.936539293864E-01
  4.031583098575E-01  4.128921640907E-01  4.228610325005E-01  4.279353648905E-01
  4.330705892692E-01  4.382674363404E-01  4.435266455765E-01  4.488489653234E-01
  4.542351529073E-01  4.596859747422E-01  4.652022064391E-01  4.707846329164E-01
  4.764340485114E-01  4.821512570935E-01  4.879370721786E-01  4.937923170448E-01
  4.997178248493E-01  5.057144387475E-01  5.117830120125E-01  5.179244081566E-01
  5.241395010545E-01  5.304291750672E-01  5.367943251680E-01  5.432358570700E-01
  5.497546873548E-01  5.563517436031E-01  5.630279645263E-01  5.697843001006E-01
  5.766217117018E-01  5.835411722423E-01  5.905436663092E-01  5.976301903049E-01
  6.048017525885E-01  6.120593736196E-01  6.194040861030E-01  6.268369351363E-01
  6.343589783579E-01  6.419712860982E-01  6.496749415314E-01  6.574710408298E-01
  6.653606933197E-01  6.733450216396E-01  6.814251618992E-01  6.896022638420E-01
  6.978774910081E-01  7.062520209002E-01  7.147270451510E-01  7.233037696928E-01
  7.319834149291E-01  7.407672159083E-01  7.496564224992E-01  7.586522995692E-01
  7.677561271640E-01  7.769692006900E-01  7.862928310983E-01  7.957283450714E-01
  8.052770852123E-01  8.149404102349E-01  8.247196951577E-01  8.346163314996E-01
  8.446317274776E-01  8.547673082073E-01  8.650245159058E-01  8.754048100966E-01
  8.859096678178E-01  8.965405838316E-01  9.072990708376E-01  9.181866596876E-01
  9.292048996039E-01  9.403553583991E-01  9.516396226999E-01  9.630592981723E-01
  9.746160097504E-01  9.863114018674E-01  9.981471386898E-01  1.010124904354E+00
  1.022246403206E+00  1.034513360045E+00  1.046927520365E+00  1.059490650610E+00
  1.072204538417E+00  1.085070992878E+00  1.098091844793E+00  1.111268946930E+00
  1.124604174293E+00  1.138099424385E+00  1.151756617477E+00  1.165577696887E+00
  1.179564629250E+00  1.193719404801E+00  1.208044037658E+00  1.222540566110E+00
  1.237211052904E+00  1.252057585538E+00  1.267082276565E+00  1.282287263884E+00
  1.297674711050E+00  1.313246807583E+00  1.329005769274E+00  1.344953838505E+00
  1.361093284567E+00  1.377426403982E+00  1.393955520830E+00  1.410682987080E+00
  1.427611182925E+00  1.444742517120E+00  1.462079427325E+00  1.479624380453E+00
  1.497379873019E+00  1.515348431495E+00  1.533532612673E+00  1.551935004025E+00
  1.570558224073E+00  1.589404922762E+00  1.608477781835E+00  1.627779515217E+00
  1.647312869400E+00  1.667080623833E+00  1.687085591319E+00  1.707330618414E+00
  1.727818585835E+00  1.748552408865E+00  1.769535037772E+00  1.790769458225E+00
  1.812258691724E+00  1.834005796024E+00  1.856013865577E+00  1.878286031964E+00
  1.900825464347E+00  1.923635369919E+00  1.946718994358E+00  1.970079622291E+00
  1.993720577758E+00  2.017645224691E+00  2.041856967388E+00  2.066359250996E+00
  2.091155562008E+00  2.116249428752E+00  2.141644421897E+00  2.167344154960E+00
  2.193352284820E+00  2.219672512237E+00  2.246308582384E+00  2.273264285373E+00
  2.300543456797E+00  2.328149978279E+00  2.356087778018E+00  2.384360831355E+00
  2.412973161331E+00  2.441928839267E+00  2.471231985338E+00  2.500886769162E+00
  2.530897410392E+00  2.561268179317E+00  2.592003397468E+00  2.623107438238E+00
  2.654584727497E+00  2.686439744227E+00  2.718677021158E+00  2.751301145412E+00
  2.784316759156E+00  2.817728560266E+00  2.851541302990E+00  2.885759798625E+00
  2.920388916209E+00  2.955433583203E+00  2.990898786202E+00  3.026789571636E+00
  3.063111046496E+00  3.099868379054E+00  3.137066799603E+00  3.174711601198E+00
  3.212808140412E+00  3.251361838097E+00  3.290378180154E+00  3.329862718316E+00
  3.369821070936E+00  3.410258923787E+00  3.451182030873E+00  3.492596215243E+00
  3.534507369826E+00  3.576921458264E+00  3.619844515763E+00  3.663282649952E+00
  3.707242041752E+00  3.751728946253E+00  3.796749693608E+00  3.842310689931E+00
  3.888418418210E+00  3.935079439229E+00  3.982300392499E+00  4.030087997209E+00
  4.078449053176E+00  4.127390441814E+00  4.176919127116E+00  4.227042156641E+00
  4.277766662521E+00  4.329099862471E+00  4.381049060821E+00  4.433621649551E+00
  4.486825109345E+00  4.540667010657E+00  4.595155014785E+00  4.650296874963E+00
  4.706100437462E+00  4.762573642712E+00  4.819724526424E+00  4.877561220741E+00
  4.936091955390E+00  4.995325058855E+00  5.055268959561E+00  5.115932187076E+00
  5.177323373321E+00  5.239451253801E+00  5.302324668846E+00  5.365952564873E+00
  5.430343995651E+00  5.495508123599E+00  5.561454221082E+00  5.628191671735E+00
  5.695729971796E+00  5.764078731457E+00  5.833247676235E+00  5.903246648350E+00
  5.974085608130E+00  6.045774635427E+00  6.118323931053E+00  6.191743818225E+00
  6.266044744044E+00  6.341237280972E+00  6.417332128344E+00  6.494340113884E+00
  6.572272195251E+00  6.651139461594E+00  6.730953135133E+00  6.811724572755E+00
  6.893465267628E+00  6.976186850839E+00  7.059901093049E+00  7.144619906166E+00
  7.230355345040E+00  7.317119609180E+00  7.404925044490E+00  7.493784145024E+00
  7.583709554765E+00  7.674714069422E+00  7.766810638255E+00  7.860012365914E+00
  7.954332514305E+00  8.049784504477E+00  8.146381918530E+00  8.244138501553E+00
  8.343068163571E+00  8.443184981534E+00  8.544503201313E+00  8.647037239728E+00
  8.750801686605E+00  8.855811306844E+00  8.962081042526E+00  9.069626015037E+00
  9.178461527217E+00  9.288603065544E+00  9.400066302330E+00  9.512867097958E+00
  9.627021503134E+00  9.742545761171E+00  9.859456310305E+00  9.977769786029E+00
  1.009750302346E+01  1.021867305974E+01  1.034129713646E+01  1.046539270210E+01
  1.059097741452E+01  1.071806914350E+01  1.084668597322E+01  1.097684620490E+01
  1.110856835936E+01  1.124187117967E+01  1.137677363382E+01  1.151329491743E+01
  1.165145445644E+01  1.179127190992E+01  1.193276717284E+01  1.207596037891E+01
  1.222087190346E+01  1.236752236630E+01  1.251593263469E+01  1.266612382631E+01
  1.281811731223E+01  1.297193471997E+01  1.312759793661E+01  1.328512911185E+01
  1.344455066119E+01  1.360588526913E+01  1.376915589236E+01  1.393438576307E+01
  1.410159839222E+01  1.427081757293E+01  1.444206738380E+01  1.461537219241E+01
  1.479075665872E+01  1.496824573862E+01  1.514786468749E+01  1.532963906374E+01
  1.551359473250E+01  1.569975786929E+01  1.588815496372E+01  1.607881282329E+01
  1.627175857717E+01  1.646701968009E+01  1.666462391625E+01  1.686459940325E+01
  1.706697459609E+01  1.727177829124E+01  1.747903963074E+01  1.768878810631E+01
  1.790105356358E+01  1.811586620634E+01  1.833325660082E+01  1.855325568003E+01
  1.877589474819E+01  1.900120548517E+01  1.922921995099E+01  1.945997059040E+01
  1.969349023749E+01  1.992981212034E+01  2.016896986578E+01  2.041099750417E+01
  2.065592947422E+01  2.090380062791E+01  2.115464623545E+01  2.140850199027E+01
  2.166540401416E+01  2.192538886233E+01  2.218849352867E+01  2.245475545102E+01
  2.272421251643E+01  2.299690306663E+01  2.327286590343E+01  2.355214029427E+01
  2.383476597780E+01  2.412078316953E+01  2.441023256757E+01  2.470315535838E+01
  2.499959322268E+01  2.529958834135E+01  2.560318340145E+01  2.591042160226E+01
  2.622134666149E+01  2.653600282143E+01  2.685443485529E+01  2.717668807355E+01
  2.750280833043E+01  2.783284203040E+01  2.816683613476E+01  2.850483816838E+01
  2.884689622640E+01  2.919305898112E+01  2.954337568889E+01  2.989789619716E+01
  3.025667095152E+01  3.061975100294E+01  3.098718801498E+01  3.135903427116E+01
  3.173534268241E+01  3.211616679460E+01  3.250156079613E+01  3.289157952569E+01
  3.328627847999E+01  3.368571382175E+01  3.408994238762E+01  3.449902169627E+01
  3.491300995662E+01  3.533196607610E+01  3.575594966902E+01  3.618502106504E+01
  3.661924131782E+01  3.705867221364E+01  3.750337628020E+01  3.795341679556E+01
  3.840885779711E+01  3.886976409068E+01  3.933620125976E+01  3.980823567488E+01
  4.028593450298E+01  4.076936571702E+01  4.125859810562E+01  4.175370128289E+01
  4.225474569828E+01  4.276180264666E+01  4.327494427842E+01  4.379424360976E+01
  4.431977453308E+01
</grid-data>
</grid>
<valence-charge total-charge="14" is-unscreening-charge="yes"
 rescaled-to-z-pseudo="no">
<radfunc>
<data npts="457">
  2.110376782056E-03  2.113228829406E-03  2.124709370487E-03  2.152607701052E-03
  2.209815946673E-03  2.317630747988E-03  2.508661660298E-03  2.801140751282E-03
  3.223910960027E-03  3.842318784588E-03  4.700982181967E-03  5.828216322677E-03
  7.459610992683E-03  9.477131361546E-03  1.226811298651E-02  1.549823500005E-02
  1.976423714372E-02  2.434622545045E-02  3.012061691605E-02  3.739488282922E-02
  4.655403914960E-02  5.555812880391E-02  6.637445247096E-02  7.936080890199E-02
  9.494306901628E-02  1.136272552207E-01  1.360134723625E-01  1.556551583341E-01
  1.781220808304E-01  2.038055503599E-01  2.331473955574E-01  2.666456023772E-01
  3.048603663279E-01  3.484205297297E-01  3.980303549635E-01  4.544765579784E-01
  5.186354928801E-01  5.914803371227E-01  6.453964433402E-01  7.039954433984E-01
  7.676460283835E-01  8.367401682063E-01  9.116936815053E-01  9.929466552260E-01
  1.080963678523E+00  1.176233850981E+00  1.279270520192E+00  1.390610698463E+00
  1.510814102981E+00  1.640461758117E+00  1.780154092880E+00  1.930508460941E+00
  2.092156005288E+00  2.265737784679E+00  2.451900074874E+00  2.651288754424E+00
  2.864542683031E+00  3.092285980427E+00  3.335119116055E+00  3.593608724874E+00
  3.868276073255E+00  4.159584111566E+00  4.467923067680E+00  4.793594558819E+00
  5.136794228842E+00  5.497592954954E+00  5.875916712682E+00  6.071582495433E+00
  6.271525241424E+00  6.475685279436E+00  6.683989715422E+00  6.896351700600E+00
  7.112669696957E+00  7.332826743845E+00  7.556689729727E+00  7.784108673522E+00
  8.014916020404E+00  8.248925957348E+00  8.485933754117E+00  8.725715135810E+00
  8.968025693540E+00  9.212600340204E+00  9.459152818722E+00  9.707375270542E+00
  9.956937872539E+00  1.020748855082E+01  1.045865278021E+01  1.071003347855E+01
  1.096121100500E+01  1.121174327187E+01  1.146116597948E+01  1.170899298354E+01
  1.195471680453E+01  1.219780928836E+01  1.243772242721E+01  1.267388934920E+01
  1.290572548475E+01  1.313262991709E+01  1.335398692327E+01  1.356916771119E+01
  1.377753235696E+01  1.397843194547E+01  1.417121091572E+01  1.435520961045E+01
  1.452976702807E+01  1.469422377257E+01  1.484792519489E+01  1.499022471697E+01
  1.512048732683E+01  1.523809323066E+01  1.534244164485E+01  1.543295470799E+01
  1.550908148998E+01  1.557030207230E+01  1.561613167048E+01  1.564612476685E+01
  1.565987921891E+01  1.565704030583E+01  1.563730467308E+01  1.560042413333E+01
  1.554620927932E+01  1.547453286358E+01  1.538533289846E+01  1.527861542960E+01
  1.515445693635E+01  1.501300631315E+01  1.485448638771E+01  1.467919493390E+01
  1.448750514073E+01  1.427986550229E+01  1.405679909875E+01  1.381890224381E+01
  1.356684248070E+01  1.330135591584E+01  1.302324388727E+01  1.273336897365E+01
  1.243265035855E+01  1.212205857420E+01  1.180260965897E+01  1.147535877210E+01
  1.114139331952E+01  1.080182565353E+01  1.045778541829E+01  1.011041162110E+01
  9.760844516765E+00  9.410217398222E+00  9.059648391349E+00  8.710232355028E+00
  8.363032988783E+00  8.019075249952E+00  7.679338179885E+00  7.344748234312E+00
  7.016173206664E+00  6.694416824852E+00  6.380214091979E+00  6.074227429760E+00
  5.777043670383E+00  5.489171928335E+00  5.211042368799E+00  4.943005873765E+00
  4.685334591639E+00  4.438223340986E+00  4.201791824762E+00  3.976087598180E+00
  3.761089721665E+00  3.556713020440E+00  3.362812864444E+00  3.179190376633E+00
  3.005597974391E+00  2.841745147780E+00  2.687304379630E+00  2.541917115745E+00
  2.405199698735E+00  2.276749185592E+00  2.156148977037E+00  2.042974195206E+00
  1.936796755235E+00  1.837190085185E+00  1.743733457252E+00  1.656015901068E+00
  1.573639676769E+00  1.496223291492E+00  1.423404047878E+00  1.354840117215E+00
  1.290212133303E+00  1.229224306189E+00  1.171605058046E+00  1.117107187057E+00
  1.065507569503E+00  1.016606415797E+00  9.702261029221E-01  9.262088790835E-01
  8.844114862410E-01  8.446990057209E-01  8.069439620104E-01  7.710271088207E-01
  7.368368248639E-01  7.042689433640E-01  6.732264531016E-01  6.436191583877E-01
  6.153632998177E-01  5.883811447160E-01  5.626005569331E-01  5.379545560116E-01
  5.143808758791E-01  4.918215331236E-01  4.702224145679E-01  4.495328932665E-01
  4.297055594951E-01  4.106963128459E-01  3.924646447317E-01  3.749734293302E-01
  3.581884987899E-01  3.420783680325E-01  3.266139056078E-01  3.117680210510E-01
  2.975153653123E-01  2.838320511241E-01  2.706953992227E-01  2.580837159370E-01
  2.459761535273E-01  2.343528012657E-01  2.231949119203E-01  2.124848603009E-01
  2.022059888613E-01  1.923425479502E-01  1.828796107784E-01  1.738029996828E-01
  1.650992181006E-01  1.567553884072E-01  1.487591953424E-01  1.410988347084E-01
  1.337629670785E-01  1.267406761736E-01  1.200214316241E-01  1.135950558134E-01
  1.074516945061E-01  1.015817909721E-01  9.597606332343E-02  9.062548478972E-02
  8.552126666765E-02  8.065484369149E-02  7.601786158170E-02  7.160216654181E-02
  6.739979648586E-02  6.340297379170E-02  5.960409938890E-02  5.599574800313E-02
  5.257066439237E-02  4.932176042389E-02  4.624211285374E-02  4.332496168388E-02
  4.056370898354E-02  3.795191807881E-02  3.548331301346E-02  3.315177821155E-02
  3.095135826876E-02  2.887625782605E-02  2.692084145517E-02  2.507963353699E-02
  2.334731808775E-02  2.171873850746E-02  2.018889722782E-02  1.875295524132E-02
  1.740623149665E-02  1.614420214845E-02  1.496249965165E-02  1.385691169240E-02
  1.282337994895E-02  1.185799867702E-02  1.095701311528E-02  1.011681770762E-02
  9.333954139809E-03  8.605109189647E-03  7.927112390867E-03  7.296933512692E-03
  6.711679858597E-03  6.168593389648E-03  5.665047679602E-03  5.198544710846E-03
  4.766711522016E-03  4.367296719837E-03  3.998166869213E-03  3.657302776901E-03
  3.342795685123E-03  3.052843392243E-03  2.785746318112E-03  2.539903531875E-03
  2.313808759934E-03  2.106046391453E-03  1.915287498160E-03  1.740285884474E-03
  1.579874182982E-03  1.432960009227E-03  1.298522188529E-03  1.175607066312E-03
  1.063324912052E-03  9.608464256234E-04  8.673993534779E-04  7.822652207407E-04
  7.047761840583E-04  6.343120087781E-04  5.702971728897E-04  5.121980990704E-04
  4.595205151751E-04  4.118069425988E-04  3.686343111180E-04  3.296116980906E-04
  2.943781892628E-04  2.626008578916E-04  2.339728584499E-04  2.082116308203E-04
  1.850572106177E-04  1.642706410885E-04  1.456324819167E-04  1.289414102217E-04
  1.140129090404E-04  1.006780386489E-04  8.878228618826E-05  7.818448919345E-05
  6.875582880007E-05  6.037888858494E-05  5.294677520028E-05  4.636229716661E-05
  4.053719839673E-05  3.539144322756E-05  3.085254993318E-05  2.685496987974E-05
  2.333950965842E-05  2.025279369601E-05  1.754676499230E-05  1.517822177089E-05
  1.310838795467E-05  1.130251549015E-05  9.729516647579E-06  8.361624517074E-06
  7.174080005768E-06  6.144843719607E-06  5.254331185593E-06  4.485169938199E-06
  3.821977057750E-06  3.251155809727E-06  2.760710092941E-06  2.340075461845E-06
  1.979965544298E-06  1.672232731241E-06  1.409742069131E-06  1.186257339724E-06
  9.963383649474E-07  8.352486270953E-07  6.988723463833E-07  5.836402088302E-07
  4.864629874373E-07  4.046723484881E-07  3.359681823937E-07  2.783718446800E-07
  2.301847373305E-07  1.899517036255E-07  1.564287507550E-07  1.285546537298E-07
  1.054260314102E-07  8.627552076317E-08  7.045270871660E-08  5.740751219384E-08
  4.667572609785E-08  3.786648618845E-08  3.065141900743E-08  2.475527430320E-08
  1.994785685654E-08  1.603709428523E-08  1.286309538913E-08  1.029306997606E-08
  8.216995973148E-09  6.543933071538E-09  5.198894268298E-09  4.120197552627E-09
  3.257229725996E-09  2.568563038599E-09  2.020373054819E-09  1.585113012342E-09
  1.240405993192E-09  9.681215559237E-10  7.536081576817E-10  5.850567892927E-10
  4.529748175624E-10  3.497521336087E-10  2.693043965868E-10  2.067804864077E-10
  1.583232804833E-10  1.208745874920E-10  9.201654109977E-11  6.984301027585E-11
  5.285564870017E-11  3.988010900475E-11  2.999871056380E-11  2.249649194885E-11
  1.681811828900E-11  1.253356474936E-11  9.310873336217E-12  6.894592686368E-12
  5.088769275884E-12  3.743572093717E-12  2.744808556437E-12  2.005733518962E-12
  1.460670959140E-12  1.060063771102E-12  7.666448833380E-13  5.524858098970E-13
  3.967294170774E-13  2.838543714163E-13  2.023512798586E-13  1.437164729801E-13
  1.016899817252E-13  7.168055612934E-14  5.033342091749E-14  3.520655040139E-14
  2.452913599262E-14  1.702206841593E-14  1.176502929582E-14  8.098476607263E-15
  5.551649821479E-15  3.789899741252E-15  2.576312516501E-15  1.743863582404E-15
  1.175296147888E-15  7.886428673373E-16  5.268522668609E-16  3.503882976158E-16
  2.319739270183E-16  1.528740893684E-16  1.002789345450E-16  6.547000202210E-17
  4.254095243220E-17  2.750928901407E-17  1.770245944673E-17  1.133559715484E-17
  7.222472554208E-18  4.578591715389E-18  2.887725707135E-18  1.811886928957E-18
  1.130915436216E-18  7.021427362693E-19  4.335995401076E-19  2.663125890912E-19
  1.547284927517E-19  9.411783746630E-20  5.692642290932E-20  3.423446034575E-20
  0.000000000000E+00  0.000000000000E+00  0.000000000000E+00  0.000000000000E+00
  0.000000000000E+00  0.000000000000E+00  0.000000000000E+00  0.000000000000E+00
  0.000000000000E+00
</data>
</radfunc>
</valence-charge>
<pseudocore-charge matching-radius="0.885909667818"
 number-of-continuous-derivatives="4">
<annotation model-charge-form="Teter function with specified parameters" />
<radfunc>
<data npts="290">
  9.459341221634E+01  9.458786294320E+01  9.457073969795E+01  9.454239536377E+01
  9.450298618061E+01  9.445116576001E+01  9.438511874461E+01  9.430948563872E+01
  9.422443973167E+01  9.412525659686E+01  9.401345223955E+01  9.389191895180E+01
  9.374502562747E+01  9.359159503610E+01  9.341058092158E+01  9.322978405433E+01
  9.302157072165E+01  9.282418617372E+01  9.260226450031E+01  9.235282238999E+01
  9.207253180329E+01  9.182361054013E+01  9.155049267924E+01  9.125090617663E+01
  9.092238243448E+01  9.056224288024E+01  9.016758543795E+01  8.984706097015E+01
  8.950394369076E+01  8.913673561655E+01  8.874385397375E+01  8.832362870858E+01
  8.787430033947E+01  8.739401824366E+01  8.688083948544E+01  8.633272830907E+01
  8.574755643669E+01  8.512310433083E+01  8.468384418253E+01  8.422539677765E+01
  8.374704076014E+01  8.324803940973E+01  8.272764162269E+01  8.218508307638E+01
  8.161958759522E+01  8.103036873635E+01  8.041663161427E+01  7.977757498487E+01
  7.911239360986E+01  7.842028092363E+01  7.770043202495E+01  7.695204701673E+01
  7.617433471721E+01  7.536651676594E+01  7.452783214804E+01  7.365754215923E+01
  7.275493583372E+01  7.181933585517E+01  7.085010496918E+01  6.984665291342E+01
  6.880844387765E+01  6.773500450238E+01  6.662593241956E+01  6.548090533251E+01
  6.429969062572E+01  6.308215548588E+01  6.182827750658E+01  6.118773585025E+01
  6.053815573718E+01  5.987957040329E+01  5.921202212412E+01  5.853556258900E+01
  5.785025327829E+01  5.715616584302E+01  5.645338248585E+01  5.574199634250E+01
  5.502211186252E+01  5.429384518838E+01  5.355732453141E+01  5.281269054359E+01
  5.206009668347E+01  5.129970957494E+01  5.053170935705E+01  4.975629002329E+01
  4.897365974854E+01  4.818404120160E+01  4.738767184147E+01  4.658480419517E+01
  4.577570611486E+01  4.496066101198E+01  4.413996806597E+01  4.331394240502E+01
  4.248291525633E+01  4.164723406311E+01  4.080726256553E+01  3.996338084291E+01
  3.911598531412E+01  3.826548869331E+01  3.741231989790E+01  3.655692390599E+01
  3.569976155996E+01  3.484130931333E+01  3.398205891801E+01  3.312251704874E+01
  3.226320486211E+01  3.140465748718E+01  3.054742344520E+01  2.969206399581E+01
  2.883915240740E+01  2.798927314963E+01  2.714302100605E+01  2.630100010547E+01
  2.546382287053E+01  2.463210888289E+01  2.380648366425E+01  2.298757737332E+01
  2.217602341916E+01  2.137245699169E+01  2.057751351117E+01  1.979182699851E+01
  1.901602836949E+01  1.825074365614E+01  1.749659215977E+01  1.675418454044E+01
  1.602412084895E+01  1.530698850771E+01  1.460336024836E+01  1.391379201419E+01
  1.323882083700E+01  1.257896269826E+01  1.193471038588E+01  1.130653135843E+01
  1.069486562962E+01  1.010012368658E+01  9.522684456416E+00  8.962893335986E+00
  8.421060300559E+00  7.897458107610E+00  7.392320612278E+00  6.905841211385E+00
  6.438171433046E+00  5.989419688852E+00  5.559650205456E+00  5.148882151987E+00
  4.757088979132E+00  4.384197984929E+00  4.030090121269E+00  3.694600053837E+00
  3.377516486684E+00  3.078582760868E+00  2.797497734553E+00  2.533916949685E+00
  2.287454087863E+00  2.057682715246E+00  1.844138313401E+00  1.646320589856E+00
  1.463696058799E+00  1.295700878966E+00  1.141743932226E+00  1.001210122860E+00
  8.734638740041E-01  7.578527942647E-01  6.537114842611E-01  5.603654497236E-01
  4.771350849966E-01  4.033396883357E-01  3.383014683708E-01  2.813494995830E-01
  2.318235836895E-01  1.890779735115E-01  1.524849162651E-01  1.214379743191E-01
  9.535508333633E-02  7.368131037521E-02  5.589127798922E-02  4.149122459348E-02
  3.002067635111E-02  2.105371149896E-02  1.419980430951E-02  9.104242670422E-03
  5.448120430223E-03  2.947913065815E-03  1.354652708918E-03  4.527259474460E-04
  5.832490241018E-05  1.758867482788E-05  2.044781622643E-04  5.184322691484E-04
  8.818574998005E-04  1.237505669667E-03  1.545795868118E-03  1.782136760361E-03
  1.934303773871E-03  1.999922671666E-03  1.984106518667E-03  1.897287201344E-03
  1.753275623629E-03  1.567576685812E-03  1.355976419217E-03  1.133409500258E-03
  9.131061367792E-04  7.060083590683E-04  5.204374125061E-04  3.619865795593E-04
  2.336076655696E-04  1.358548263119E-04  6.724659097687E-05  2.470595763479E-05
  4.039334270514E-06  4.177949269392E-07  8.828446976398E-06  2.446939853532E-05
  4.306852929474E-05  6.111359427078E-05  7.598867823547E-05  8.601920618452E-05
  9.043415755493E-05  8.925943421873E-05  8.316017959126E-05  7.325202926843E-05
  6.090170806062E-05  4.753612469486E-05  3.447633873283E-05  2.280879141137E-05
  1.330140847830E-05  6.367068238079E-06  2.071973869422E-06  1.821437265311E-07
  2.379349695189E-07  1.644531622422E-06  3.765802814959E-06  6.009855704515E-06
  7.896795812625E-06  9.102349123734E-06  9.474673379925E-06  9.025412978797E-06
  7.899358542819E-06  6.329548668873E-06  4.586006633086E-06  2.926407343053E-06
  1.555866879277E-06  6.009589965122E-07  1.003519310184E-07  0.000000000000E+00
  0.000000000000E+00  0.000000000000E+00  0.000000000000E+00  0.000000000000E+00
  0.000000000000E+00  0.000000000000E+00  0.000000000000E+00  0.000000000000E+00
  0.000000000000E+00  0.000000000000E+00  0.000000000000E+00  0.000000000000E+00
  0.000000000000E+00  0.000000000000E+00  0.000000000000E+00  0.000000000000E+00
  0.000000000000E+00  0.000000000000E+00  0.000000000000E+00  0.000000000000E+00
  0.000000000000E+00  0.000000000000E+00  0.000000000000E+00  0.000000000000E+00
  0.000000000000E+00  0.000000000000E+00  0.000000000000E+00  0.000000000000E+00
  0.000000000000E+00  0.000000000000E+00  0.000000000000E+00  0.000000000000E+00
  0.000000000000E+00  0.000000000000E+00  0.000000000000E+00  0.000000000000E+00
  0.000000000000E+00  0.000000000000E+00  0.000000000000E+00  0.000000000000E+00
  0.000000000000E+00  0.000000000000E+00  0.000000000000E+00  0.000000000000E+00
  0.000000000000E+00  0.000000000000E+00
</data>
</radfunc>
</pseudocore-charge>
<semilocal-potentials set="lj">
<slps n="5" l="s" j="0.5" rc="2.27326428537" eref="-0.389077972978">
<radfunc>
<data npts="290">
  3.302255405538E+01  3.300435252120E+01  3.294826915998E+01  3.285570071995E+01
  3.272754652206E+01  3.255999962402E+01  3.234803209872E+01  3.210744430792E+01
  3.183961134520E+01  3.153080489362E+01  3.118720068412E+01  3.081899587972E+01
  3.038115847792E+01  2.993203856582E+01  2.941264842575E+01  2.890485753478E+01
  2.833320916731E+01  2.780385089058E+01  2.722277145531E+01  2.658676968840E+01
  2.589286794041E+01  2.529426799978E+01  2.465576354236E+01  2.397643781296E+01
  2.325565104798E+01  2.249308674741E+01  2.168879714972E+01  2.105846022340E+01
  2.040526492656E+01  1.972972216045E+01  1.903249981309E+01  1.831442753048E+01
  1.757649953378E+01  1.681987525258E+01  1.604587758313E+01  1.525598863071E+01
  1.445184285519E+01  1.363521760823E+01  1.308480510912E+01  1.253028670233E+01
  1.197227811174E+01  1.141141364317E+01  1.084834370697E+01  1.028373220571E+01
  9.718253810665E+00  9.152591153158E+00  8.587431957809E+00  8.023466146033E+00
  7.461382938417E+00  6.901867984755E+00  6.345600549997E+00  5.793250783420E+00
  5.245477096925E+00  4.702923676495E+00  4.166218148640E+00  3.635969421017E+00
  3.112765713603E+00  2.597172793637E+00  2.089732424318E+00  1.590961033852E+00
  1.101348608023E+00  6.213578060955E-01  1.514232964829E-01 -3.080486945514E-01
 -7.566806309684E-01 -1.194123724465E+00 -1.620057816739E+00 -1.828616701647E+00
 -2.034191104258E+00 -2.236748911775E+00 -2.436259725468E+00 -2.632694841813E+00
 -2.826027232385E+00 -3.016231522708E+00 -3.203283970254E+00 -3.387162441831E+00
 -3.567846390540E+00 -3.745316832552E+00 -3.919556323914E+00 -4.090548937610E+00
 -4.258280241121E+00 -4.422737274708E+00 -4.583908530670E+00 -4.741783933795E+00
 -4.896354823275E+00 -5.047613936309E+00 -5.195555393654E+00 -5.340174687355E+00
 -5.481468670924E+00 -5.619435552187E+00 -5.754074889059E+00 -5.885387588480E+00
 -6.013375908744E+00 -6.138043465446E+00 -6.259395241256E+00 -6.377437599728E+00
 -6.492178303318E+00 -6.603626535776E+00 -6.711792929045E+00 -6.816689594761E+00
 -6.918330160429E+00 -7.016729810285E+00 -7.111905330806E+00 -7.203875160778E+00
 -7.292659445751E+00 -7.378280096634E+00 -7.460760852105E+00 -7.540127344388E+00
 -7.616407167883E+00 -7.689629949978E+00 -7.759827423288E+00 -7.827033498418E+00
 -7.891284336221E+00 -7.952618418418E+00 -8.011076615269E+00 -8.066702248925E+00
 -8.119541150919E+00 -8.169641712192E+00 -8.217054923945E+00 -8.261834407544E+00
 -8.304036431656E+00 -8.343719914763E+00 -8.380946411211E+00 -8.415780078965E+00
 -8.448287627289E+00 -8.478538242641E+00 -8.506603491172E+00 -8.532557196302E+00
 -8.556475290008E+00 -8.578435636548E+00 -8.598517827517E+00 -8.616802947260E+00
 -8.633373307799E+00 -8.648312152587E+00 -8.661703328520E+00 -8.673630925773E+00
 -8.684178885165E+00 -8.693430572886E+00 -8.701468322585E+00 -8.708372945007E+00
 -8.714223205614E+00 -8.719095270949E+00 -8.723062124953E+00 -8.726192957034E+00
 -8.728552524550E+00 -8.730200493385E+00 -8.731190761787E+00 -8.731570774385E+00
 -8.731380835519E+00 -8.730653433638E+00 -8.729412591437E+00 -8.727673259505E+00
 -8.725440774218E+00 -8.722710402976E+00 -8.719467001120E+00 -8.715684804159E+00