<?xml version="1.0" encoding="UTF-8" ?>
<psml version="1.1" energy_unit="hartree" length_unit="bohr"
 uuid="9a0d3630-53a0-11e8-5e7a-678bfffe06af"
 xmlns="http://esl.cecam.org/PSML/ns/1.1">
<provenance creator="ONCVPSP-3.3.0+psml-3.3.0-73 (fully-relativistic)"
 date="2018-05-09">
<annotation action="semilocal-pseudopotential-generation"
 action-cont="projectors-generation" />
<input-file name="oncvpsp-input">
<![CDATA[# atsym z nc nv iexc psfile
Ti 22 3 4 -116133 upf
# n l f
1 0 2.0
2 0 2.0
2 1 6.0
3 0 2.0
3 1 6.0
3 2 2.0
4 0 2.0
# lmax
2
# l rc ep ncon nbas qcut
0 1.35 0.0 4 8 8.6
1 1.3 0.0 4 8 9.0
2 1.65 0.0 4 8 9.0
# lloc lpopt rc5 dvloc0
4 5 1.3 0.0
# l nproj debl
0 2 1.0
1 2 2.0
2 2 1.5
# icmod fcfact
3 2.5 1.40
# epsh1 epsh2 depsh
-12.0 12.0 0.02
# rlmax drl
6.0 0.01
 0
]]>
</input-file>
</provenance>
<pseudo-atom-spec atomic-label="Ti" atomic-number="22" z-pseudo="12"
 flavor="Hamann&apos;s oncvpsp" relativity="dirac" spin-dft="no"
 core-corrections="yes">
<annotation pseudo-energy="-58.0150507759" />
<exchange-correlation>
<annotation oncvpsp-xc-code="-116133" oncvpsp-xc-type="libxc-interface" />
<libxc-info number-of-functionals="2">
<functional name="Perdew, Burke &amp; Ernzerhof SOL (GGA)" type="exchange"
 id="116" />
<functional name="Perdew, Burke &amp; Ernzerhof SOL (GGA)" type="correlation"
 id="133" />
</libxc-info>
</exchange-correlation>
<valence-configuration total-valence-charge="12">
<shell n="3" l="s" occupation="2" />
<shell n="3" l="p" occupation="6" />
<shell n="3" l="d" occupation="2" />
<shell n="4" l="s" occupation="2" />
</valence-configuration>
</pseudo-atom-spec>
<grid npts="457">
<annotation type="sampled from oncvpsp log grid"
 recipe="r(i:1..N) = r1*exp(a*(i-1)) + r=0; resampled"
 recipe-cont="r1: scale; a: step" scale="0.227272727273E-04"
 step="0.119285708653E-01" delta="0.500000000000E-02" rmax="44.2272058873" />
<grid-data>
  0.000000000000E+00  5.050326870634E-03  1.008763158867E-02  1.513305596120E-02
  2.014925244947E-02  2.527485517356E-02  3.058981678310E-02  3.572099424244E-02
  4.072950911740E-02  4.588960304035E-02  5.109035418629E-02  5.620604328253E-02
  6.183396752268E-02  6.721879163176E-02  7.307255428460E-02  7.849416313563E-02
  8.431802756430E-02  8.949999295644E-02  9.500042838519E-02  1.008389061859E-01
  1.070362015583E-01  1.122671605650E-01  1.177537614174E-01  1.235084975710E-01
  1.295444730481E-01  1.358754322768E-01  1.425157913881E-01  1.477081729672E-01
  1.530897323645E-01  1.586673620330E-01  1.644482055438E-01  1.704396667347E-01
  1.766494191929E-01  1.830854160832E-01  1.897559003335E-01  1.966694151926E-01
  2.038348151717E-01  2.112612773846E-01  2.163619696658E-01  2.215858130614E-01
  2.269357809319E-01  2.324149184268E-01  2.380263442172E-01  2.437732522720E-01
  2.496589136749E-01  2.556866784866E-01  2.618599776520E-01  2.681823249525E-01
  2.746573190061E-01  2.812886453162E-01  2.880800783687E-01  2.950354837808E-01
  3.021588205013E-01  3.094541430634E-01  3.169256038936E-01  3.245774556740E-01
  3.324140537638E-01  3.404398586778E-01  3.486594386257E-01  3.570774721119E-01
  3.656987505986E-01  3.745281812330E-01  3.835707896407E-01  3.928317227858E-01
  4.023162519008E-01  4.120297754867E-01  4.219778223860E-01  4.270415562546E-01
  4.321660549297E-01  4.373520475889E-01  4.426002721599E-01  4.479114754258E-01
  4.532864131309E-01  4.587258500885E-01  4.642305602896E-01  4.698013270131E-01
  4.754389429372E-01  4.811442102525E-01  4.869179407755E-01  4.927609560648E-01
  4.986740875376E-01  5.046581765880E-01  5.107140747071E-01  5.168426436036E-01
  5.230447553268E-01  5.293212923907E-01  5.356731478994E-01  5.421012256742E-01
  5.486064403823E-01  5.551897176669E-01  5.618519942789E-01  5.685942182102E-01
  5.754173488288E-01  5.823223570147E-01  5.893102252989E-01  5.963819480025E-01
  6.035385313785E-01  6.107809937550E-01  6.181103656801E-01  6.255276900683E-01
  6.330340223491E-01  6.406304306173E-01  6.483179957847E-01  6.560978117341E-01
  6.639709854749E-01  6.719386373006E-01  6.800019009482E-01  6.881619237596E-01
  6.964198668447E-01  7.047769052468E-01  7.132342281098E-01  7.217930388471E-01
  7.304545553133E-01  7.392200099770E-01  7.480906500968E-01  7.570677378979E-01
  7.661525507527E-01  7.753463813617E-01  7.846505379381E-01  7.940663443933E-01
  8.035951405261E-01  8.132382822124E-01  8.229971415989E-01  8.328731072981E-01
  8.428675845857E-01  8.529819956007E-01  8.632177795479E-01  8.735763929025E-01
  8.840593096173E-01  8.946680213327E-01  9.054040375887E-01  9.162688860398E-01
  9.272641126723E-01  9.383912820243E-01  9.496519774086E-01  9.610478011375E-01
  9.725803747512E-01  9.842513392482E-01  9.960623553192E-01  1.008015103583E+00
  1.020111284826E+00  1.032352620244E+00  1.044740851687E+00  1.057277741907E+00
  1.069965074810E+00  1.082804655708E+00  1.095798311576E+00  1.108947891315E+00
  1.122255266011E+00  1.135722329203E+00  1.149350997153E+00  1.163143209119E+00
  1.177100927629E+00  1.191226138760E+00  1.205520852425E+00  1.219987102654E+00
  1.234626947886E+00  1.249442471261E+00  1.264435780916E+00  1.279609010287E+00
  1.294964318411E+00  1.310503890231E+00  1.326229936914E+00  1.342144696157E+00
  1.358250432511E+00  1.374549437701E+00  1.391044030954E+00  1.407736559325E+00
  1.424629398037E+00  1.441724950813E+00  1.459025650223E+00  1.476533958026E+00
  1.494252365522E+00  1.512183393908E+00  1.530329594635E+00  1.548693549771E+00
  1.567277872368E+00  1.586085206837E+00  1.605118229319E+00  1.624379648071E+00
  1.643872203847E+00  1.663598670294E+00  1.683561854337E+00  1.703764596589E+00
  1.724209771748E+00  1.744900289009E+00  1.765839092477E+00  1.787029161587E+00
  1.808473511526E+00  1.830175193664E+00  1.852137295988E+00  1.874362943540E+00
  1.896855298863E+00  1.919617562449E+00  1.942652973198E+00  1.965964808877E+00
  1.989556386583E+00  2.013431063222E+00  2.037592235981E+00  2.062043342813E+00
  2.086787862926E+00  2.111829317282E+00  2.137171269089E+00  2.162817324318E+00
  2.188771132210E+00  2.215036385796E+00  2.241616822426E+00  2.268516224295E+00
  2.295738418987E+00  2.323287280014E+00  2.351166727375E+00  2.379380728103E+00
  2.407933296840E+00  2.436828496402E+00  2.466070438359E+00  2.495663283620E+00
  2.525611243023E+00  2.555918577939E+00  2.586589600875E+00  2.617628676085E+00
  2.649040220198E+00  2.680828702840E+00  2.712998647275E+00  2.745554631042E+00
  2.778501286614E+00  2.811843302054E+00  2.845585421678E+00  2.879732446738E+00
  2.914289236099E+00  2.949260706933E+00  2.984651835416E+00  3.020467657441E+00
  3.056713269330E+00  3.093393828562E+00  3.130514554505E+00  3.168080729159E+00
  3.206097697909E+00  3.244570870284E+00  3.283505720727E+00  3.322907789376E+00
  3.362782682848E+00  3.403136075042E+00  3.443973707943E+00  3.485301392438E+00
  3.527125009147E+00  3.569450509257E+00  3.612283915368E+00  3.655631322353E+00
  3.699498898221E+00  3.743892885000E+00  3.788819599620E+00  3.834285434815E+00
  3.880296860033E+00  3.926860422353E+00  3.973982747421E+00  4.021670540391E+00
  4.069930586875E+00  4.118769753918E+00  4.168194990965E+00  4.218213330856E+00
  4.268831890827E+00  4.320057873516E+00  4.371898567999E+00  4.424361350815E+00
  4.477453687024E+00  4.531183131269E+00  4.585557328844E+00  4.640584016790E+00
  4.696271024992E+00  4.752626277291E+00  4.809657792619E+00  4.867373686130E+00
  4.925782170364E+00  4.984891556408E+00  5.044710255085E+00  5.105246778146E+00
  5.166509739484E+00  5.228507856358E+00  5.291249950634E+00  5.354744950042E+00
  5.419001889442E+00  5.484029912116E+00  5.549838271061E+00  5.616436330314E+00
  5.683833566277E+00  5.752039569073E+00  5.821064043902E+00  5.890916812428E+00
  5.961607814178E+00  6.033147107948E+00  6.105544873243E+00  6.178811411722E+00
  6.252957148663E+00  6.327992634447E+00  6.403928546060E+00  6.480775688613E+00
  6.558544996876E+00  6.637247536839E+00  6.716894507281E+00  6.797497241368E+00
  6.879067208264E+00  6.961616014764E+00  7.045155406941E+00  7.129697271824E+00
  7.215253639086E+00  7.301836682755E+00  7.389458722948E+00  7.478132227623E+00
  7.567869814355E+00  7.658684252127E+00  7.750588463153E+00  7.843595524710E+00
  7.937718671007E+00  8.032971295059E+00  8.129366950600E+00  8.226919354007E+00
  8.325642386255E+00  8.425550094890E+00  8.526656696029E+00  8.628976576381E+00
  8.732524295298E+00  8.837314586841E+00  8.943362361883E+00  9.050682710226E+00
  9.159290902749E+00  9.269202393582E+00  9.380432822305E+00  9.492998016172E+00
  9.606913992366E+00  9.722196960275E+00  9.838863323798E+00  9.956929683684E+00
  1.007641283989E+01  1.019732979397E+01  1.031969775149E+01  1.044353412451E+01
  1.056885653401E+01  1.069568281241E+01  1.082403100616E+01  1.095391937824E+01
  1.108536641078E+01  1.121839080771E+01  1.135301149740E+01  1.148924763537E+01
  1.162711860699E+01  1.176664403027E+01  1.190784375864E+01  1.205073788374E+01
  1.219534673835E+01  1.234169089921E+01  1.248979119000E+01  1.263966868428E+01
  1.279134470849E+01  1.294484084499E+01  1.310017893513E+01  1.325738108235E+01
  1.341646965534E+01  1.357746729120E+01  1.374039689870E+01  1.390528166148E+01
  1.407214504142E+01  1.424101078192E+01  1.441190291130E+01  1.458484574624E+01
  1.475986389519E+01  1.493698226193E+01  1.511622604908E+01  1.529762076167E+01
  1.548119221081E+01  1.566696651734E+01  1.585497011554E+01  1.604522975693E+01
  1.623777251401E+01  1.643262578418E+01  1.662981729359E+01  1.682937510111E+01
  1.703132760233E+01  1.723570353356E+01  1.744253197596E+01  1.765184235967E+01
  1.786366446799E+01  1.807802844160E+01  1.829496478290E+01  1.851450436030E+01
  1.873667841262E+01  1.896151855357E+01  1.918905677621E+01  1.941932545753E+01
  1.965235736302E+01  1.988818565138E+01  2.012684387919E+01  2.036836600574E+01
  2.061278639781E+01  2.086013983458E+01  2.111046151260E+01  2.136378705075E+01
  2.162015249536E+01  2.187959432530E+01  2.214214945721E+01  2.240785525069E+01
  2.267674951370E+01  2.294887050787E+01  2.322425695396E+01  2.350294803741E+01
  2.378498341386E+01  2.407040321482E+01  2.435924805340E+01  2.465155903004E+01
  2.494737773840E+01  2.524674627126E+01  2.554970722652E+01  2.585630371324E+01
  2.616657935780E+01  2.648057831009E+01  2.679834524981E+01  2.711992539281E+01
  2.744536449752E+01  2.777470887149E+01  2.810800537795E+01  2.844530144249E+01
  2.878664505980E+01  2.913208480051E+01  2.948166981812E+01  2.983544985594E+01
  3.019347525421E+01  3.055579695726E+01  3.092246652075E+01  3.129353611899E+01
  3.166905855242E+01  3.204908725505E+01  3.243367630211E+01  3.282288041774E+01
  3.321675498275E+01  3.361535604254E+01  3.401874031505E+01  3.442696519883E+01
  3.484008878122E+01  3.525816984660E+01  3.568126788475E+01  3.610944309937E+01
  3.654275641656E+01  3.698126949356E+01  3.742504472749E+01  3.787414526422E+01
  3.832863500739E+01  3.878857862747E+01  3.925404157100E+01  3.972509006986E+01
  4.020179115069E+01  4.068421264450E+01  4.117242319624E+01  4.166649227459E+01
  4.216649018189E+01  4.267248806407E+01  4.318455792084E+01  4.370277261589E+01
  4.422720588728E+01
</grid-data>
</grid>
<valence-charge total-charge="12" is-unscreening-charge="yes"
 rescaled-to-z-pseudo="no">
<radfunc>
<data npts="457">
  1.952997258446E+00  1.955205118799E+00  1.961804770593E+00  1.972813996338E+00
  1.988117977762E+00  2.008236462184E+00  2.033869588889E+00  2.063211225859E+00
  2.096189315601E+00  2.134628949303E+00  2.177933614243E+00  2.224974557426E+00
  2.281786697969E+00  2.341074606102E+00  2.410951659873E+00  2.480669149575E+00
  2.560864271007E+00  2.636794419269E+00  2.722053110673E+00  2.817743858783E+00
  2.925088937213E+00  3.020259072312E+00  3.124503903747E+00  3.238636735322E+00
  3.363532366661E+00  3.500129103002E+00  3.649430113147E+00  3.770383376568E+00
  3.899557209157E+00  4.037446330421E+00  4.184564663932E+00  4.341444137920E+00
  4.508633014200E+00  4.686693658087E+00  4.876199649357E+00  5.077732120543E+00
  5.291875193778E+00  5.519210371252E+00  5.678379229766E+00  5.843831382823E+00
  6.015727651714E+00  6.194222750922E+00  6.379463722672E+00  6.571588193373E+00
  6.770722437803E+00  6.976979236553E+00  7.190455511987E+00  7.411229728009E+00
  7.639359039135E+00  7.874876174984E+00  8.117786047243E+00  8.368062067644E+00
  8.625642167538E+00  8.890424512376E+00  9.162262908001E+00  9.440961900143E+00
  9.726271574147E+00  1.001788206883E+01  1.031541782670E+01  1.061843161255E+01
  1.092639834420E+01  1.123870879265E+01  1.155466322422E+01  1.187346507530E+01
  1.219421476952E+01  1.251590380953E+01  1.283740929880E+01  1.299770981213E+01
  1.315748907444E+01  1.331657251505E+01  1.347477765869E+01  1.363191406045E+01
  1.378778326353E+01  1.394217878183E+01  1.409488610997E+01  1.424568276304E+01
  1.439433834874E+01  1.454061467445E+01  1.468426589185E+01  1.482503868186E+01
  1.496267248247E+01  1.509689976224E+01  1.522744634207E+01  1.535403176785E+01
  1.547636973651E+01  1.559416857780E+01  1.570713179415E+01  1.581495866050E+01
  1.591734488609E+01  1.601398333966E+01  1.610456483924E+01  1.618877900756E+01
  1.626631519341E+01  1.633686345898E+01  1.640011563277E+01  1.645576642689E+01
  1.650351461713E+01  1.654306428359E+01  1.657412610876E+01  1.659641872937E+01
  1.660967013747E+01  1.661361912560E+01  1.660801676976E+01  1.659262794328E+01
  1.656723285399E+01  1.653162859579E+01  1.648563070544E+01  1.642907471423E+01
  1.636181768361E+01  1.628373971307E+01  1.619474540809E+01  1.609476529527E+01
  1.598375717141E+01  1.586170737297E+01  1.572863195218E+01  1.558457774582E+01
  1.542962332309E+01  1.526387979901E+01  1.508749150018E+01  1.490063647059E+01
  1.470352680549E+01  1.449640880271E+01  1.427956292167E+01  1.405330354141E+01
  1.381797851094E+01  1.357396848595E+01  1.332168604830E+01  1.306157460605E+01
  1.279410707363E+01  1.251978433381E+01  1.223913348487E+01  1.195270587839E+01
  1.166107495487E+01  1.136483388639E+01  1.106459303729E+01  1.076097725556E+01
  1.045462300940E+01  1.014617538500E+01  9.836284963261E+00  9.525604594354E+00
  9.214786090890E+00  8.904476861475E+00  8.595316507981E+00  8.287933411104E+00
  7.982941330061E+00  7.680936043545E+00  7.382492060237E+00  7.088159428318E+00
  6.798460674411E+00  6.513887903260E+00  6.234900090054E+00  5.961920597601E+00
  5.695334950486E+00  5.435488897735E+00  5.182686794326E+00  4.937190330028E+00
  4.699217631444E+00  4.468942759674E+00  4.246495621799E+00  4.031962309290E+00
  3.825385870621E+00  3.626767518880E+00  3.436068928651E+00  3.253217677182E+00
  3.078114500378E+00  2.910636788735E+00  2.750641289139E+00  2.597968986966E+00
  2.452446932354E+00  2.313890178809E+00  2.182103655758E+00  2.056884008814E+00
  1.938021384688E+00  1.825301151171E+00  1.718505539723E+00  1.617415197881E+00
  1.521810638151E+00  1.431473569685E+00  1.346188099003E+00  1.265741786355E+00
  1.189926545269E+00  1.118539374435E+00  1.051382693337E+00  9.882632805457E-01
  9.289907890982E-01  8.733782065860E-01  8.212422989540E-01  7.724040155647E-01
  7.266888449586E-01  6.839271229487E-01  6.439542948465E-01  6.066111337528E-01
  5.717439169753E-01  5.392045627490E-01  5.088507295400E-01  4.805458803041E-01
  4.541593141548E-01  4.295661679617E-01  4.066473904554E-01  3.852896914478E-01
  3.653854687852E-01  3.468327156351E-01  3.295349106456E-01  3.134008934238E-01
  2.983447276368E-01  2.842855538586E-01  2.711474340696E-01  2.588591894781E-01
  2.473542330847E-01  2.365703981776E-01  2.264497637375E-01  2.169384775671E-01
  2.079865778415E-01  1.995478137125E-01  1.915794655775E-01  1.840421656323E-01
  1.768997193551E-01  1.701189285997E-01  1.636694169931E-01  1.575234583360E-01
  1.516558086810E-01  1.460435427221E-01  1.406658950625E-01  1.355041068529E-01
  1.305412782066E-01  1.257622267083E-01  1.211533522464E-01  1.167025083210E-01
  1.123988799018E-01  1.082328678497E-01  1.041959798584E-01  1.002807278293E-01
  9.648053155198E-02  9.278962853729E-02  8.920298982314E-02  8.571624155775E-02
  8.232559215138E-02  7.902776477871E-02  7.581993500784E-02  7.269967332866E-02
  6.966489235166E-02  6.671379844837E-02  6.384484760623E-02  6.105670527261E-02
  5.834820996642E-02  5.571834043901E-02  5.316618617086E-02  5.069092099485E-02
  4.829177964227E-02  4.596803701308E-02  4.371898997749E-02  4.154394152199E-02
  3.944218705938E-02  3.741300272884E-02  3.545563551929E-02  3.356929505678E-02
  3.175314690482E-02  3.000630723518E-02  2.832783873601E-02  2.671674763411E-02
  2.517198171861E-02  2.369242926422E-02  2.227691876368E-02  2.092421938964E-02
  1.963304211756E-02  1.840204144293E-02  1.722981768639E-02  1.611491975390E-02
  1.505584840734E-02  1.405105996499E-02  1.309897040762E-02  1.219795985594E-02
  1.134637738157E-02  1.054254610951E-02  9.784768563928E-03  9.071332204015E-03
  8.400515090625E-03  7.770591620538E-03  7.179838261921E-03  6.626539223592E-03
  6.108991991434E-03  5.625512668194E-03  5.174441057489E-03  4.754145439142E-03
  4.363026990452E-03  3.999523816415E-03  3.662114560768E-03  3.349321578761E-03
  3.059713661331E-03  2.791908308671E-03  2.544573558762E-03  2.316429383172E-03
  2.106248668199E-03  1.912857804155E-03  1.735136909382E-03  1.572019718309E-03
  1.422493164753E-03  1.285596692669E-03  1.160421326837E-03  1.046108535622E-03
  9.418489170191E-04  8.468807378750E-04  7.604883544269E-04  6.820005403775E-04
  6.107887465258E-04  5.462653137201E-04  4.878816585638E-04  4.351264489842E-04
  3.875237845077E-04  3.446313939070E-04  3.060388608450E-04  2.713658862438E-04
  2.402605943922E-04  2.123978882693E-04  1.874778582142E-04  1.652242469173E-04
  1.453829727284E-04  1.277207124653E-04  1.120235442553E-04  9.809565041717E-05
  8.575807998941E-05  7.484757020500E-05  6.521542598540E-05  5.672645636149E-05
  4.925796661024E-05  4.269880481033E-05  3.694846145584E-05  3.191622071756E-05
  2.752036189895E-05  2.368740959441E-05  2.035143101958E-05  1.745337894394E-05
  1.494047861756E-05  1.276565704456E-05  1.088701291886E-05  9.267325503633E-06
  7.873600706353E-06  6.676652577833E-06  5.650718447442E-06  4.773105898770E-06
  4.023869791029E-06  3.385517541818E-06  2.842740906560E-06  2.382172518837E-06
  1.992165493390E-06  1.662594439248E-06  1.384676283309E-06  1.150809363951E-06
  9.544293188380E-07  7.898803599362E-07  6.523006009859E-07  5.375201770926E-07
  4.419709719279E-07  3.626068442642E-07  2.968333214552E-07  2.424458022784E-07
  1.975753846520E-07  1.606415045894E-07  1.303106409233E-07  1.054604054534E-07
  8.514839999426E-08  6.858528011145E-08  5.511152003207E-08  4.417742422433E-08
  3.532597847194E-08  2.817817695560E-08  2.242050198550E-08  1.779426971910E-08
  1.408658859395E-08  1.112270746973E-08  8.759557749823E-09  6.880318259576E-09
  5.389854293736E-09  4.210898492151E-09  3.238270127913E-09  2.462003880380E-09
  1.907782065032E-09  1.474163548029E-09  1.135862838261E-09  8.726812663332E-10
  6.685300915421E-10  5.106314982597E-10  3.888670485525E-10  2.952479829099E-10
  2.234858933947E-10  1.686458188199E-10  1.268668074824E-10  9.513753016523E-11
  7.111666713703E-11  5.298959319634E-11  3.935439324013E-11  2.913150021188E-11
  2.149229496276E-11  1.580287600227E-11  1.157992439396E-11  8.456179336180E-12
  6.153523977752E-12  4.462076435267E-12  3.224002832563E-12  2.321030188691E-12
  1.664847854218E-12  1.189755926440E-12  8.470551729024E-13  6.007817076968E-13
  4.244761726253E-13  2.987457450190E-13  2.094314330750E-13  1.462356963631E-13
  1.016987797886E-13  7.043816811485E-14  4.858578467540E-14  3.337320177360E-14
  2.282718568873E-14  1.554715051898E-14  1.054316458823E-14  7.118532355430E-15
  4.785050207578E-15  3.202108750784E-15  2.133123005170E-15  1.414498136695E-15
  9.336232178615E-16  6.133375072731E-16  4.010158686126E-16  2.609353906867E-16
  1.689618846902E-16  1.088688077365E-16  6.979936552201E-17  4.452529249393E-17
  2.825810806258E-17  1.784159815117E-17  1.120603181343E-17  7.001161603656E-18
  4.350717702672E-18  2.689034179331E-18  1.652905711937E-18  1.010386564631E-18
  6.141660512097E-19  3.712047284757E-19  2.230699012431E-19  1.332717826421E-19
  7.915435359066E-20  4.673260795390E-20  2.742475219513E-20  1.599599954775E-20
  9.272442364703E-21  5.341444405098E-21  3.057541914123E-21  1.739010414661E-21
  9.826854024100E-22  5.516650167020E-22  3.076455153382E-22  1.704138577437E-22
  9.375695984365E-23  0.000000000000E+00  0.000000000000E+00  0.000000000000E+00
  0.000000000000E+00
</data>
</radfunc>
</valence-charge>
<pseudocore-charge matching-radius="0.535673147899"
 number-of-continuous-derivatives="4">
<annotation model-charge-form="Teter function with specified parameters" />
<radfunc>
<data npts="290">
  4.103324809342E+01  4.102736907943E+01  4.100979733789E+01  4.098049033405E+01
  4.093976161316E+01  4.088623960650E+01  4.081807904468E+01  4.074010158727E+01
  4.065251641509E+01  4.055050139446E+01  4.043567191946E+01  4.031105115498E+01
  4.016070534233E+01  4.000399486394E+01  3.981953971776E+01  3.963576882128E+01
  3.942470341125E+01  3.922518122029E+01  3.900151390865E+01  3.875094043622E+01
  3.847042717636E+01  3.822223804909E+01  3.795092944498E+01  3.765453745876E+01
  3.733097112241E+01  3.697801295927E+01  3.659332195853E+01  3.628250423602E+01
  3.595137849622E+01  3.559883616490E+01  3.522374183374E+01  3.482493847358E+01
  3.440125385144E+01  3.395150830420E+01  3.347452403114E+01  3.296913607367E+01
  3.243420515537E+01  3.186863255471E+01  3.147404393589E+01  3.106508218602E+01
  3.064147499219E+01  3.020297110174E+01  2.974934360831E+01  2.928039347201E+01
  2.879595327469E+01  2.829589120859E+01  2.778011529332E+01  2.724857781252E+01
  2.670127995703E+01  2.613827665641E+01  2.555968157505E+01  2.496567224268E+01
  2.435649528177E+01  2.373247168676E+01  2.309400210121E+01  2.244157202958E+01
  2.177575691053E+01  2.109722696803E+01  2.040675174535E+01  1.970520421600E+01
  1.899356435416E+01  1.827292203599E+01  1.754447913272E+01  1.680955064672E+01
  1.606956473370E+01  1.532606144791E+01  1.458069004386E+01  1.420784802439E+01
  1.383520466804E+01  1.346299463529E+01  1.309145827801E+01  1.272084134191E+01
  1.235139463555E+01  1.198337366530E+01  1.161703823534E+01  1.125265201211E+01
  1.089048205268E+01  1.053079829683E+01  1.017387302263E+01  9.819980265499E+00
  9.469395201258E+00  9.122393493455E+00  8.779250605880E+00  8.440241081287E+00
  8.105637787660E+00  7.775711133695E+00  7.450728255469E+00  7.130952176638E+00
  6.816640944831E+00  6.508046747303E+00  6.205415009270E+00  5.908983478730E+00
  5.618981301976E+00  5.335628094384E+00  5.059133011436E+00  4.789693825320E+00
  4.527496012814E+00  4.272711860488E+00  4.025499593584E+00  3.786002535226E+00
  3.554348302851E+00  3.330648048960E+00  3.114995753458E+00  2.907467574924E+00
  2.708121268210E+00  2.516995675719E+00  2.334110299583E+00  2.159464961785E+00
  1.993039558953E+00  1.834793918161E+00  1.684667759602E+00  1.542580771369E+00
  1.408432800888E+00  1.282104166731E+00  1.163456093604E+00  1.052331272276E+00
  9.485545450760E-01  8.519337163541E-01  7.622604859946E-01  6.793115026521E-01
  6.028495319439E-01  5.326247333206E-01  4.683760378081E-01  4.098326172799E-01
  3.567154344060E-01  3.087388609531E-01  2.656123507172E-01  2.270421520825E-01
  1.927330440417E-01  1.623900785303E-01  1.357203111379E-01  1.124345017017E-01
  9.224876598931E-02  7.488615966385E-02  6.007817601755E-02  4.756613958253E-02
  3.710247868387E-02  2.845186130503E-02  2.139218028097E-02  1.571537581312E-02
  1.122808559260E-02  7.752115395299E-03  5.124725835493E-03  3.198733986592E-03
  1.842431739255E-03  9.393260032864E-04  3.877090957890E-04  1.000708143787E-04
  2.366686520219E-06  3.315962843883E-05  1.426546543982E-04  2.916482682203E-04
  4.504156694809E-04  5.975598529128E-04  7.188470208328E-04  8.060524312238E-04
  8.558398542900E-04  8.686962154584E-04  8.479407939164E-04  7.988255779582E-04
  7.277401306720E-04  6.415306933612E-04  5.469393710365E-04  4.501652420095E-04
  3.565452609011E-04  2.703490352833E-04  1.946781029857E-04  1.314573628931E-04
  8.150394302248E-05  4.465712755228E-05  1.995207984338E-05  5.820025052714E-06
  2.982866009462E-07  1.235055803773E-06  6.475921708691E-06  1.402186828026E-05
  2.215149575054E-05  2.950345570314E-05  3.511830615712E-05  3.844199454603E-05
  3.929577780774E-05  3.781943191812E-05  3.439596997259E-05  2.956671004550E-05
  2.394539981400E-05  1.813926162451E-05  1.268337323463E-05  7.992898925864E-06
  4.335522894329E-06  1.824222021364E-06  4.284597540212E-07  1.792789530369E-10
  3.097764607476E-07  1.086640501169E-06  2.058896517489E-06  2.987632569362E-06
  3.692040534083E-06  4.063386484175E-06  4.067355509916E-06  3.735878450871E-06
  3.150846877208E-06  2.422999636403E-06  1.669621178568E-06  9.945045366539E-07
  4.729540285124E-07  1.435587848819E-07  7.234726180653E-09  0.000000000000E+00
  0.000000000000E+00  0.000000000000E+00  0.000000000000E+00  0.000000000000E+00
  0.000000000000E+00  0.000000000000E+00  0.000000000000E+00  0.000000000000E+00
  0.000000000000E+00  0.000000000000E+00  0.000000000000E+00  0.000000000000E+00
  0.000000000000E+00  0.000000000000E+00  0.000000000000E+00  0.000000000000E+00
  0.000000000000E+00  0.000000000000E+00  0.000000000000E+00  0.000000000000E+00
  0.000000000000E+00  0.000000000000E+00  0.000000000000E+00  0.000000000000E+00
  0.000000000000E+00  0.000000000000E+00  0.000000000000E+00  0.000000000000E+00
  0.000000000000E+00  0.000000000000E+00  0.000000000000E+00  0.000000000000E+00
  0.000000000000E+00  0.000000000000E+00  0.000000000000E+00  0.000000000000E+00
  0.000000000000E+00  0.000000000000E+00  0.000000000000E+00  0.000000000000E+00
  0.000000000000E+00  0.000000000000E+00  0.000000000000E+00  0.000000000000E+00
  0.000000000000E+00  0.000000000000E+00  0.000000000000E+00  0.000000000000E+00
  0.000000000000E+00  0.000000000000E+00  0.000000000000E+00  0.000000000000E+00
  0.000000000000E+00  0.000000000000E+00  0.000000000000E+00  0.000000000000E+00
  0.000000000000E+00  0.000000000000E+00  0.000000000000E+00  0.000000000000E+00
  0.000000000000E+00  0.000000000000E+00  0.000000000000E+00  0.000000000000E+00
  0.000000000000E+00  0.000000000000E+00  0.000000000000E+00  0.000000000000E+00
  0.000000000000E+00  0.000000000000E+00  0.000000000000E+00  0.000000000000E+00
  0.000000000000E+00  0.000000000000E+00  0.000000000000E+00  0.000000000000E+00
  0.000000000000E+00  0.000000000000E+00  0.000000000000E+00  0.000000000000E+00
  0.000000000000E+00  0.000000000000E+00
</data>
</radfunc>
</pseudocore-charge>
<semilocal-potentials set="lj">
<slps n="3" l="s" j="0.5" rc="1.35825043251" eref="-2.29465069675">
<radfunc>
<data npts="290">
 -2.343357588976E+00 -2.345906060475E+00 -2.353518321184E+00 -2.366207821465E+00
 -2.383829869661E+00 -2.406964548556E+00 -2.436389598936E+00 -2.470001801507E+00
 -2.507690924109E+00 -2.551503664884E+00 -2.600709877307E+00 -2.653980510583E+00
 -2.718066543668E+00 -2.784655837923E+00 -2.862761642718E+00 -2.940286196193E+00
 -3.028968425084E+00 -3.112452389546E+00 -3.205639699921E+00 -3.309539354125E+00
 -3.425234841353E+00 -3.527058361446E+00 -3.637792012121E+00 -3.758083114489E+00
 -3.888599962390E+00 -4.030026903054E+00 -4.183058043187E+00 -4.305865540515E+00
 -4.435883373874E+00 -4.573397812052E+00 -4.718687064279E+00 -4.872017887722E+00
 -5.033641807337E+00 -5.203790939912E+00 -5.382673420221E+00 -5.570468434480E+00
 -5.767320874730E+00 -5.973335637355E+00 -6.115800148985E+00 -6.262368840469E+00
 -6.413035318664E+00 -6.567781133467E+00 -6.726574895950E+00 -6.889371390436E+00
 -7.056110685940E+00 -7.226717252881E+00 -7.401099091396E+00 -7.579146878017E+00
 -7.760733137883E+00 -7.945711449976E+00 -8.133915693230E+00 -8.325159341632E+00
 -8.519234816663E+00 -8.715912905675E+00 -8.914942254928E+00 -9.116048946178E+00
 -9.318936165791E+00 -9.523283975401E+00 -9.728749193145E+00 -9.934965394415E+00
 -1.014154304091E+01 -1.034806974644E+01 -1.055411068753E+01 -1.075920916601E+01
 -1.096288733009E+01 -1.116464705868E+01 -1.136397101270E+01 -1.146255294750E+01
 -1.156032385450E+01 -1.165721423179E+01 -1.175315363497E+01 -1.184807072943E+01
 -1.194189334504E+01 -1.203454853325E+01 -1.212596262648E+01 -1.221606129980E+01
 -1.230476963477E+01 -1.239201218534E+01 -1.247771304589E+01 -1.256179592118E+01
 -1.264418419829E+01 -1.272480102047E+01 -1.280356936276E+01 -1.288041210967E+01
 -1.295525213450E+01 -1.302801238076E+01 -1.309861594534E+01 -1.316698616374E+01
 -1.323304669726E+01 -1.329672162232E+01 -1.335793552184E+01 -1.341661357885E+01
 -1.347268167236E+01 -1.352606647542E+01 -1.357669555549E+01 -1.362449747710E+01
 -1.366940190657E+01 -1.371133971901E+01 -1.375024310710E+01 -1.378604569173E+01
 -1.381868263416E+01 -1.384809074931E+01 -1.387420861998E+01 -1.389697671144E+01
 -1.391633748594E+01 -1.393223551654E+01 -1.394461759964E+01 -1.395343286550E+01
 -1.395863288588E+01 -1.396017177807E+01 -1.395800630423E+01 -1.395209596526E+01
 -1.394240308798E+01 -1.392889290487E+01 -1.391153362528E+01 -1.389029649726E+01
 -1.386515585941E+01 -1.383608918213E+01 -1.380307709821E+01 -1.376610342294E+01
 -1.372515516444E+01 -1.368022252556E+01 -1.363129889934E+01 -1.357838086100E+01
 -1.352146816004E+01 -1.346056371749E+01 -1.339567363410E+01 -1.332680721662E+01
 -1.325397703054E+01 -1.317719898896E+01 -1.309649248845E+01 -1.301188060420E+01
 -1.292339035773E+01 -1.283105307173E+01 -1.273490482752E+01 -1.263498704128E+01
 -1.253134717579E+01 -1.242403960459E+01 -1.231312664511E+01 -1.219867977661E+01
 -1.208078105730E+01 -1.195952475268E+01 -1.183501918420E+01 -1.170738880288E+01
 -1.157677648717E+01 -1.144334605728E+01 -1.130728498984E+01 -1.116880730628E+01
 -1.102815659628E+01 -1.088560912358E+01 -1.074147694547E+01 -1.059611095945E+01
 -1.044990377181E+01 -1.030329226250E+01 -1.015675970060E+01 -1.001083724563E+01