<?xml version="1.0" encoding="UTF-8" ?>
<psml version="1.1" energy_unit="hartree" length_unit="bohr"
 uuid="1c4e5c00-5149-11e8-7ddc-d47fee3fd55b"
 xmlns="http://esl.cecam.org/PSML/ns/1.1">
<provenance creator="ONCVPSP-3.3.0+psml-3.3.0-73 (fully-relativistic)"
 date="2018-05-06">
<annotation action="semilocal-pseudopotential-generation"
 action-cont="projectors-generation" />
<input-file name="oncvpsp-input">
<![CDATA[# atsym z nc nv iexc psfile
Te 52 9 2 -116133 both
# n l f
1 0 2.0
2 0 2.0
2 1 6.0
3 0 2.0
3 1 6.0
3 2 10.0
4 0 2.0
4 1 6.0
4 2 10.0
5 0 2.0
5 1 4.0
# lmax
2
# l rc ep ncon nbas qcut
0 2.4 0.0 4 8 4.4
1 2.2 0.0 4 8 4.8
2 2.6 0.1 4 7 3.8
# lloc lpopt rc5 dvloc0
4 5 2.2 0.0
# l nproj debl
0 2 1.5
1 2 1.5
2 2 3.0
# icmod fcfact
3 9.0 1.2
# epsh1 epsh2 depsh
-12.0 12.0 0.02
# rlmax drl
6.0 0.01
 0
]]>
</input-file>
</provenance>
<pseudo-atom-spec atomic-label="Te" atomic-number="52" z-pseudo="6"
 flavor="Hamann&apos;s oncvpsp" relativity="dirac" spin-dft="no"
 core-corrections="yes">
<annotation pseudo-energy="-8.19072128928" />
<exchange-correlation>
<annotation oncvpsp-xc-code="-116133" oncvpsp-xc-type="libxc-interface" />
<libxc-info number-of-functionals="2">
<functional name="Perdew, Burke &amp; Ernzerhof SOL (GGA)" type="exchange"
 id="116" />
<functional name="Perdew, Burke &amp; Ernzerhof SOL (GGA)" type="correlation"
 id="133" />
</libxc-info>
</exchange-correlation>
<valence-configuration total-valence-charge="6">
<shell n="5" l="s" occupation="2" />
<shell n="5" l="p" occupation="4" />
</valence-configuration>
</pseudo-atom-spec>
<grid npts="457">
<annotation type="sampled from oncvpsp log grid"
 recipe="r(i:1..N) = r1*exp(a*(i-1)) + r=0; resampled"
 recipe-cont="r1: scale; a: step" scale="0.961538461538E-05"
 step="0.119285708653E-01" delta="0.500000000000E-02" rmax="44.1677972533" />
<grid-data>
  0.000000000000E+00  5.043542968859E-03  1.007408127726E-02  1.511272833334E-02
  2.012218676581E-02  2.524090447309E-02  3.054872670761E-02  3.567301166182E-02
  4.067479879938E-02  4.582796137488E-02  5.102172656014E-02  5.613054395614E-02
  6.175090843111E-02  6.712849932167E-02  7.297439884964E-02  7.838872507068E-02
  8.420476653556E-02  8.937977120117E-02  9.487281811536E-02  1.007034533227E-01
  1.068924241165E-01  1.121163565855E-01  1.175955875068E-01  1.233425935539E-01
  1.293704611469E-01  1.356929162517E-01  1.423243556345E-01  1.475097624955E-01
  1.528840930596E-01  1.584542305217E-01  1.642273088569E-01  1.702107219580E-01
  1.764121331045E-01  1.828394847779E-01  1.895010088340E-01  1.964052370456E-01
  2.035610120299E-01  2.109774985736E-01  2.160713392991E-01  2.212881657152E-01
  2.266309471882E-01  2.321027247771E-01  2.377066129641E-01  2.434458014276E-01
  2.493235568572E-01  2.553432248140E-01  2.615082316339E-01  2.678220863785E-01
  2.742883828320E-01  2.809108015471E-01  2.876931119396E-01  2.946391744343E-01
  3.017529426618E-01  3.090384657095E-01  3.164998904256E-01  3.241414637800E-01
  3.319675352815E-01  3.399825594533E-01  3.481910983688E-01  3.565978242478E-01
  3.652075221164E-01  3.740250925304E-01  3.830555543645E-01  3.923040476690E-01
  4.017758365960E-01  4.114763123947E-01  4.214109964812E-01  4.264679284390E-01
  4.315855435802E-01  4.367645701032E-01  4.420057449444E-01  4.473098138838E-01
  4.526775316504E-01  4.581096620302E-01  4.636069779745E-01  4.691702617102E-01
  4.748003048508E-01  4.804979085090E-01  4.862638834111E-01  4.920990500120E-01
  4.980042386121E-01  5.039802894755E-01  5.100280529492E-01  5.161483895846E-01
  5.223421702596E-01  5.286102763027E-01  5.349535996183E-01  5.413730428138E-01
  5.478695193275E-01  5.544439535595E-01  5.610972810022E-01  5.678304483742E-01
  5.746444137547E-01  5.815401467198E-01  5.885186284804E-01  5.955808520222E-01
  6.027278222464E-01  6.099605561134E-01  6.172800827867E-01  6.246874437802E-01
  6.321836931055E-01  6.397698974228E-01  6.474471361919E-01  6.552165018262E-01
  6.630790998481E-01  6.710360490463E-01  6.790884816348E-01  6.872375434144E-01
  6.954843939354E-01  7.038302066626E-01  7.122761691426E-01  7.208234831723E-01
  7.294733649704E-01  7.382270453500E-01  7.470857698942E-01  7.560507991330E-01
  7.651234087225E-01  7.743048896272E-01  7.835965483027E-01  7.929997068824E-01
  8.025157033650E-01  8.121458918053E-01  8.218916425070E-01  8.317543422171E-01
  8.417353943237E-01  8.518362190556E-01  8.620582536842E-01  8.724029527285E-01
  8.828717881612E-01  8.934662496191E-01  9.041878446146E-01  9.150380987499E-01
  9.260185559349E-01  9.371307786062E-01  9.483763479494E-01  9.597568641248E-01
  9.712739464943E-01  9.829292338523E-01  9.947243846585E-01  1.006661077274E+00
  1.018741010202E+00  1.030965902324E+00  1.043337493152E+00  1.055857543070E+00
  1.068527833587E+00  1.081350167590E+00  1.094326369601E+00  1.107458286036E+00
  1.120747785468E+00  1.134196758894E+00  1.147807120001E+00  1.161580805441E+00
  1.175519775106E+00  1.189626012407E+00  1.203901524556E+00  1.218348342851E+00
  1.232968522965E+00  1.247764145241E+00  1.262737314984E+00  1.277890162763E+00
  1.293224844717E+00  1.308743542853E+00  1.324448465367E+00  1.340341846952E+00
  1.356425949115E+00  1.372703060505E+00  1.389175497231E+00  1.405845603197E+00
  1.422715750436E+00  1.439788339441E+00  1.457065799514E+00  1.474550589108E+00
  1.492245196178E+00  1.510152138532E+00  1.528273964194E+00  1.546613251765E+00
  1.565172610786E+00  1.583954682115E+00  1.602962138301E+00  1.622197683960E+00
  1.641664056168E+00  1.661364024842E+00  1.681300393140E+00  1.701475997858E+00
  1.721893709832E+00  1.742556434350E+00  1.763467111562E+00  1.784628716901E+00
  1.806044261504E+00  1.827716792642E+00  1.849649394153E+00  1.871845186883E+00
  1.894307329126E+00  1.917039017075E+00  1.940043485280E+00  1.963324007103E+00
  1.986883895189E+00  2.010726501931E+00  2.034855219954E+00  2.059273482594E+00
  2.083984764385E+00  2.108992581557E+00  2.134300492536E+00  2.159912098446E+00
  2.185831043628E+00  2.212061016151E+00  2.238605748345E+00  2.265469017325E+00
  2.292654645533E+00  2.320166501280E+00  2.348008499295E+00  2.376184601287E+00
  2.404698816502E+00  2.433555202300E+00  2.462757864728E+00  2.492310959104E+00
  2.522218690614E+00  2.552485314901E+00  2.583115138680E+00  2.614112520344E+00
  2.645481870588E+00  2.677227653035E+00  2.709354384872E+00  2.741866637490E+00
  2.774769037140E+00  2.808066265586E+00  2.841763060773E+00  2.875864217502E+00
  2.910374588112E+00  2.945299083169E+00  2.980642672167E+00  3.016410384233E+00
  3.052607308844E+00  3.089238596550E+00  3.126309459709E+00  3.163825173225E+00
  3.201791075304E+00  3.240212568208E+00  3.279095119026E+00  3.318444260454E+00
  3.358265591580E+00  3.398564778679E+00  3.439347556023E+00  3.480619726695E+00
  3.522387163416E+00  3.564655809377E+00  3.607431679089E+00  3.650720859238E+00
  3.694529509549E+00  3.738863863664E+00  3.783730230028E+00  3.829134992788E+00
  3.875084612701E+00  3.921585628054E+00  3.968644655590E+00  4.016268391458E+00
  4.064463612155E+00  4.113237175501E+00  4.162596021607E+00  4.212547173866E+00
  4.263097739953E+00  4.314254912832E+00  4.366025971786E+00  4.418418283447E+00
  4.471439302849E+00  4.525096574483E+00  4.579397733377E+00  4.634350506177E+00
  4.689962712251E+00  4.746242264798E+00  4.803197171976E+00  4.860835538040E+00
  4.919165564496E+00  4.978195551270E+00  5.037933897885E+00  5.098389104660E+00
  5.159569773916E+00  5.221484611203E+00  5.284142426537E+00  5.347552135656E+00
  5.411722761284E+00  5.476663434419E+00  5.542383395632E+00  5.608891996380E+00
  5.676198700336E+00  5.744313084740E+00  5.813244841757E+00  5.883003779858E+00
  5.953599825217E+00  6.025043023119E+00  6.097343539397E+00  6.170511661869E+00
  6.244557801812E+00  6.319492495433E+00  6.395326405379E+00  6.472070322243E+00
  6.549735166110E+00  6.628331988103E+00  6.707871971961E+00  6.788366435624E+00
  6.869826832852E+00  6.952264754846E+00  7.035691931904E+00  7.120120235087E+00
  7.205561677908E+00  7.292028418043E+00  7.379532759059E+00  7.468087152168E+00
  7.557704197994E+00  7.648396648370E+00  7.740177408151E+00  7.833059537048E+00
  7.927056251493E+00  8.022180926511E+00  8.118447097629E+00  8.215868462801E+00
  8.314458884354E+00  8.414232390966E+00  8.515203179658E+00  8.617385617814E+00
  8.720794245228E+00  8.825443776170E+00  8.931349101484E+00  9.038525290702E+00
  9.146987594191E+00  9.256751445321E+00  9.367832462665E+00  9.480246452217E+00
  9.594009409643E+00  9.709137522559E+00  9.825647172830E+00  9.943554938904E+00
  1.006287759817E+01  1.018363212935E+01  1.030583571490E+01  1.042950574348E+01
  1.055465981240E+01  1.068131573015E+01  1.080949151891E+01  1.093920541714E+01
  1.107047588214E+01  1.120332159273E+01  1.133776145184E+01  1.147381458927E+01
  1.161150036434E+01  1.175083836871E+01  1.189184842913E+01  1.203455061028E+01
  1.217896521761E+01  1.232511280022E+01  1.247301415382E+01  1.262269032367E+01
  1.277416260755E+01  1.292745255884E+01  1.308258198955E+01  1.323957297342E+01
  1.339844784910E+01  1.355922922329E+01  1.372193997397E+01  1.388660325366E+01
  1.405324249270E+01  1.422188140261E+01  1.439254397945E+01  1.456525450720E+01
  1.474003756129E+01  1.491691801202E+01  1.509592102817E+01  1.527707208050E+01
  1.546039694547E+01  1.564592170882E+01  1.583367276932E+01  1.602367684255E+01
  1.621596096466E+01  1.641055249624E+01  1.660747912619E+01  1.680676887571E+01
  1.700845010222E+01  1.721255150344E+01  1.741910212148E+01  1.762813134694E+01
  1.783966892311E+01  1.805374495018E+01  1.827038988959E+01  1.848963456826E+01
  1.871151018308E+01  1.893604830528E+01  1.916328088494E+01  1.939324025556E+01
  1.962595913863E+01  1.986147064829E+01  2.009980829607E+01  2.034100599562E+01
  2.058509806757E+01  2.083211924438E+01  2.108210467531E+01  2.133508993142E+01
  2.159111101059E+01  2.185020434272E+01  2.211240679483E+01  2.237775567637E+01
  2.264628874449E+01  2.291804420942E+01  2.319306073993E+01  2.347137746881E+01
  2.375303399844E+01  2.403807040642E+01  2.432652725130E+01  2.461844557831E+01
  2.491386692525E+01  2.521283332836E+01  2.551538732830E+01  2.582157197624E+01
  2.613143083995E+01  2.644500801003E+01  2.676234810615E+01  2.708349628342E+01
  2.740849823883E+01  2.773740021769E+01  2.807024902030E+01  2.840709200855E+01
  2.874797711265E+01  2.909295283800E+01  2.944206827206E+01  2.979537309132E+01
  3.015291756842E+01  3.051475257924E+01  3.088092961019E+01  3.125150076551E+01
  3.162651877470E+01  3.200603700000E+01  3.239010944400E+01  3.277879075732E+01
  3.317213624641E+01  3.357020188137E+01  3.397304430394E+01  3.438072083559E+01
  3.479328948562E+01  3.521080895945E+01  3.563333866696E+01  3.606093873096E+01
  3.649366999573E+01  3.693159403568E+01  3.737477316411E+01  3.782327044208E+01
  3.827714968739E+01  3.873647548363E+01  3.920131318944E+01  3.967172894771E+01
  4.014778969508E+01  4.062956317142E+01  4.111711792948E+01  4.161052334464E+01
  4.210984962477E+01  4.261516782027E+01  4.312654983411E+01  4.364406843212E+01
  4.416779725331E+01
</grid-data>
</grid>
<valence-charge total-charge="6" is-unscreening-charge="yes"
 rescaled-to-z-pseudo="no">
<radfunc>
<data npts="457">
  2.011877008384E-03  2.015643521961E-03  2.026910765919E-03  2.045734683128E-03
  2.071961040668E-03  2.106542801511E-03  2.150776553580E-03  2.201648240537E-03
  2.259129309541E-03  2.326538194218E-03  2.403007125119E-03  2.486711161190E-03
  2.588691452126E-03  2.696159547763E-03  2.824199550491E-03  2.953443010665E-03
  3.103972417851E-03  3.248347585768E-03  3.412625147942E-03  3.599756582462E-03
  3.813181385444E-03  4.005531229573E-03  4.219638368161E-03  4.458198896051E-03
  4.724285181962E-03  5.021405069363E-03  5.353571256941E-03  5.628436937818E-03
  5.927776005084E-03  6.254016706356E-03  6.609858028454E-03  6.998302847819E-03
  7.422695342548E-03  7.886763210185E-03  8.394665299273E-03  8.951045332095E-03
  9.561092471049E-03  1.023060956140E-02  1.071316879432E-02  1.122714103112E-02
  1.177480401258E-02  1.235861482001E-02  1.298122448893E-02  1.364549377714E-02
  1.435451016580E-02  1.511160617525E-02  1.592037907930E-02  1.678471210407E-02
  1.770879719835E-02  1.869715946253E-02  1.975468332269E-02  2.088664053342E-02
  2.209872008937E-02  2.339706011890E-02  2.478828182457E-02  2.627952552312E-02
  2.787848882231E-02  2.959346695201E-02  3.143339524211E-02  3.340789370913E-02
  3.552731367583E-02  3.780278630280E-02  4.024627285619E-02  4.287061647116E-02
  4.568959509392E-02  4.871797519474E-02  5.197156573988E-02  5.368805349799E-02
  5.546727178806E-02  5.731151361432E-02  5.922314693701E-02  6.120461618093E-02
  6.325844368461E-02  6.538723107937E-02  6.759366058668E-02  6.988049622124E-02
  7.225058488601E-02  7.470685734473E-02  7.725232905597E-02  7.989010085178E-02
  8.262335944294E-02  8.545537773105E-02  8.838951490693E-02  9.142921631318E-02
  9.457801304715E-02  9.783952127951E-02  1.012174412619E-01  1.047155559953E-01
  1.083377295304E-01  1.120879048676E-01  1.159701014250E-01  1.199884120398E-01
  1.241469994667E-01  1.284500923373E-01  1.329019805406E-01  1.375070099841E-01
  1.422695766963E-01  1.471941202244E-01  1.522851162873E-01  1.575470686356E-01
  1.629845000765E-01  1.686019426153E-01  1.744039266689E-01  1.803949693050E-01
  1.865795614610E-01  1.929621540985E-01  1.995471432493E-01  2.063388539115E-01
  2.133415227554E-01  2.205592796032E-01  2.279961276481E-01  2.356559223834E-01
  2.435423492177E-01  2.516588997549E-01  2.600088467290E-01  2.685952175841E-01
  2.774207667047E-01  2.864879463056E-01  2.957988760023E-01  3.053553110929E-01
  3.151586095959E-01  3.252096980965E-01  3.355090364732E-01  3.460565815856E-01
  3.568517500218E-01  3.678933800195E-01  3.791796926902E-01  3.907082526930E-01
  4.024759285215E-01  4.144788525850E-01  4.267123812813E-01  4.391710552775E-01
  4.518485602280E-01  4.647376881794E-01  4.778302999235E-01  4.911172885753E-01
  5.045885446638E-01  5.182329230366E-01  5.320382118851E-01  5.459911042077E-01
  5.600771720288E-01  5.742808436987E-01  5.885853845935E-01  6.029728815387E-01
  6.174242312680E-01  6.319191332273E-01  6.464360870232E-01  6.609523948036E-01
  6.754441688480E-01  6.898863446333E-01  7.042526996274E-01  7.185158780536E-01
  7.326474218583E-01  7.466178081089E-01  7.603964930448E-01  7.739519630060E-01
  7.872517924705E-01  8.002627094416E-01  8.129506684482E-01  8.252809314393E-01
  8.372181568902E-01  8.487264974671E-01  8.597697066383E-01  8.703112546593E-01
  8.803144543952E-01  8.897425974803E-01  8.985591013350E-01  9.067276675708E-01
  9.142124522999E-01  9.209782488245E-01  9.269906831067E-01  9.322164222948E-01
  9.366233964129E-01  9.401810330894E-01  9.428605049000E-01  9.446349885368E-01
  9.454799345702E-01  9.453733460574E-01  9.442960636637E-01  9.422320543159E-01
  9.391686997095E-01  9.350970802633E-01  9.300122493813E-01  9.239134921717E-01
  9.168045621231E-01  9.086938886929E-01  8.995947483581E-01  8.895253914742E-01
  8.785091173198E-01  8.665742900175E-01  8.537542886627E-01  8.400873859711E-01
  8.256165511099E-01  8.103891740817E-01  7.944567110880E-01  7.778742526458E-01
  7.607000188239E-01  7.429947887061E-01  7.248212739753E-01  7.062434492314E-01
  6.873258541571E-01  6.681328848074E-01  6.487280929650E-01  6.291735135525E-01
  6.095290404025E-01  5.898518701653E-01  5.701960653256E-01  5.506123530645E-01
  5.311481000934E-01  5.118471711260E-01  4.927497562135E-01  4.738923079476E-01
  4.553075147202E-01  4.370244077886E-01  4.190688238679E-01  4.014640413005E-01
  3.842309394867E-01  3.673879653988E-01  3.509512567042E-01  3.349347160948E-01
  3.193500993629E-01  3.042071071306E-01  2.895134800693E-01  2.752750969040E-01
  2.614960744429E-01  2.481788689318E-01  2.353243780733E-01  2.229320430972E-01
  2.109999503147E-01  1.995249316333E-01  1.885026635582E-01  1.779277642496E-01
  1.677938882518E-01  1.580938185566E-01  1.488195557037E-01  1.399624036656E-01
  1.315130523066E-01  1.234616562351E-01  1.157979099289E-01  1.085111190178E-01
  1.015902676642E-01  9.502408201066E-02  8.880108968237E-02  8.290967537108E-02
  7.733813254848E-02  7.207471137986E-02  6.710766292998E-02  6.242527977136E-02
  5.801593312087E-02  5.386810664345E-02  4.997042707165E-02  4.631169179706E-02
  4.288089359351E-02  3.966724263351E-02  3.666018595733E-02  3.384942455043E-02
  3.122492817841E-02  2.877694812043E-02  2.649602793311E-02  2.437301236651E-02
  2.239905454418E-02  2.056562150937E-02  1.886449823105E-02  1.728779015609E-02
  1.582792438825E-02  1.447764957046E-02  1.323003454485E-02  1.207846586384E-02
  1.101664422624E-02  1.003857991368E-02  9.138587304780E-03  8.311278546775E-03
  7.551556466550E-03  6.854606804979E-03  6.215889859719E-03  5.631131622126E-03
  5.096314493590E-03  4.607667665244E-03  4.161657242729E-03  3.754976194544E-03
  3.384534198550E-03  3.047447456519E-03  2.741028541444E-03  2.462776336629E-03
  2.210366119693E-03  1.981639838491E-03  1.774596619840E-03  1.587383545867E-03
  1.418286726885E-03  1.265722694058E-03  1.128230129764E-03  1.004461948582E-03
  8.931777372652E-04  7.932365578956E-04  7.035901147583E-04  6.232762822153E-04
  5.514129880971E-04  4.871924447968E-04  4.298757183521E-04  3.787876242987E-04
  3.333119379547E-04  2.928869059995E-04  2.570010457233E-04  2.251892180829E-04
  1.970289606859E-04  1.721370669836E-04  1.501663982538E-04  1.308029153621E-04
  1.137629177699E-04  9.879047778682E-05  8.565505861837E-05  7.414930532243E-05
  6.408699833987E-05  5.530115980339E-05  4.764230334072E-05  4.097681857330E-05
  3.518548196686E-05  3.016208611561E-05  2.581217993941E-05  2.205191264427E-05
  1.880697464528E-05  1.601162897899E-05  1.360782704341E-05  1.154440280058E-05
  9.776339861534E-06  8.264106148419E-06  6.973051095755E-06  5.872860612670E-06
  4.937065282304E-06  4.142597523213E-06  3.469393681144E-06  2.900037257897E-06
  2.419439716852E-06  2.014555531927E-06  1.674128367662E-06  1.388465492387E-06
  1.149237733541E-06  9.493024836265E-07  7.825474565758E-07  6.437530771689E-07
  5.284715601112E-07  4.329209003706E-07  3.538921521250E-07  2.886685201666E-07
  2.349549248317E-07  1.908168295739E-07  1.546272393112E-07  1.250208878844E-07
  1.008547346226E-07  8.117398344405E-08  6.518292347512E-08  5.221996823073E-08
  4.173634137109E-08  3.327792134430E-08  2.646981527567E-08  2.100328469313E-08
  1.662469251288E-08  1.312618256446E-08  1.033784021512E-08  8.121115751385E-09
  6.363321462225E-09  4.973039199655E-09  3.876297901543E-09  3.013400461860E-09
  2.336296716475E-09  1.806414448072E-09  1.392873450200E-09  1.071019055696E-09
  8.212213360839E-10  6.278946044374E-10  4.786990745342E-10  3.638926965804E-10
  2.758064411449E-10  2.084207598815E-10  1.570247221736E-10  1.179425064200E-10
  8.831459722359E-11  6.592327878855E-11  4.905388455756E-11  3.638481929922E-11
  2.690066078697E-11  1.982371553275E-11  1.456028252464E-11  1.065860117742E-11
  7.776050825062E-12  5.653651217984E-12  4.096305367981E-12  2.957543496241E-12
  2.127783030564E-12  1.525325642057E-12  1.089477431427E-12  7.753102210119E-13
  5.496868018485E-13  3.882561281640E-13  2.731901095083E-13  1.914853058553E-13
  1.336933155508E-13  9.297525403949E-14  6.440030352686E-14  4.442735702404E-14
  3.052347428299E-14  2.088415995186E-14  1.422911808084E-14  9.653726263965E-15
  6.521474863395E-15  4.386398302688E-15  2.937372121204E-15  1.958283306021E-15
  1.299673978419E-15  8.586419167632E-16  5.646568832893E-16  3.695965146913E-16
  2.407782958450E-16  1.561091118937E-16  1.007245956861E-16  6.467162614117E-17
  4.131780962596E-17  2.626515897972E-17  1.661176059878E-17  1.045243567891E-17
  6.542723168257E-18  4.073910072982E-18  2.523181453224E-18  1.554324237309E-18
  9.522750380711E-19  5.802056731371E-19  3.515369808706E-19  2.117871934797E-19
  1.223565163679E-19  7.295425810227E-20  4.324242841125E-20  2.547836573269E-20
  0.000000000000E+00  0.000000000000E+00  0.000000000000E+00  0.000000000000E+00
  0.000000000000E+00  0.000000000000E+00  0.000000000000E+00  0.000000000000E+00
  0.000000000000E+00  0.000000000000E+00  0.000000000000E+00  0.000000000000E+00
  0.000000000000E+00  0.000000000000E+00  0.000000000000E+00  0.000000000000E+00
  0.000000000000E+00  0.000000000000E+00  0.000000000000E+00  0.000000000000E+00
  0.000000000000E+00  0.000000000000E+00  0.000000000000E+00  0.000000000000E+00
  0.000000000000E+00
</data>
</radfunc>
</valence-charge>
<pseudocore-charge matching-radius="1.62219768396"
 number-of-continuous-derivatives="4">
<annotation model-charge-form="Teter function with specified parameters" />
<radfunc>
<data npts="290">
  8.843976040348E+00  8.843788472138E+00  8.843227723040E+00  8.842292051837E+00
  8.840990837831E+00  8.839279328591E+00  8.837097122769E+00  8.834597053993E+00
  8.831784391556E+00  8.828502234958E+00  8.824799904761E+00  8.820772379688E+00
  8.815900222616E+00  8.810806295372E+00  8.804790078375E+00  8.798774025454E+00
  8.791836917793E+00  8.785251901911E+00  8.777838152035E+00  8.769492160027E+00
  8.760097702157E+00  8.751740101565E+00  8.742554278013E+00  8.732459105514E+00
  8.721365711121E+00  8.709176777279E+00  8.695785790390E+00  8.684884010814E+00
  8.673187632739E+00  8.660639875697E+00  8.647180076426E+00  8.632743450468E+00
  8.617260843475E+00  8.600658472512E+00  8.582857657860E+00  8.563774545998E+00
  8.543319824709E+00  8.521398431527E+00  8.505919679016E+00  8.489712752386E+00
  8.472744845320E+00  8.454981818680E+00  8.436388161255E+00  8.416926950998E+00
  8.396559816996E+00  8.375246902433E+00  8.352946828865E+00  8.329616662108E+00
  8.305211880151E+00  8.279686343470E+00  8.252992268225E+00  8.225080202823E+00
  8.195899008421E+00  8.165395843964E+00  8.133516156429E+00  8.100203677004E+00
  8.065400424002E+00  8.029046713369E+00  7.991081177730E+00  7.951440794994E+00
  7.910060927604E+00  7.866875373636E+00  7.821816431001E+00  7.774814976127E+00
  7.725800558561E+00  7.674701513054E+00  7.621445090763E+00  7.593984869978E+00
  7.565957611305E+00  7.537353987807E+00  7.508164637491E+00  7.478380170154E+00
  7.447991174641E+00  7.416988226566E+00  7.385361896485E+00  7.353102758556E+00
  7.320201399694E+00  7.286648429241E+00  7.252434489170E+00  7.217550264828E+00
  7.181986496259E+00  7.145733990099E+00  7.108783632072E+00  7.071126400113E+00
  7.032753378111E+00  6.993655770308E+00  6.953824916370E+00  6.913252307130E+00
  6.871929601033E+00  6.829848641292E+00  6.787001473768E+00  6.743380365590E+00
  6.698977824523E+00  6.653786619094E+00  6.607799799494E+00  6.561010719254E+00
  6.513413057705E+00  6.465000843231E+00  6.415768477315E+00  6.365710759372E+00
  6.314822912380E+00  6.263100609301E+00  6.210540000275E+00  6.157137740597E+00
  6.102891019446E+00  6.047797589362E+00  5.991855796445E+00  5.935064611254E+00
  5.877423660383E+00  5.818933258673E+00  5.759594442028E+00  5.699409000801E+00
  5.638379513677E+00  5.576509382039E+00  5.513802864718E+00  5.450265113090E+00
  5.385902206433E+00  5.320721187477E+00  5.254730098044E+00  5.187938014703E+00
  5.120355084324E+00  5.051992559435E+00  4.982862833243E+00  4.912979474222E+00
  4.842357260100E+00  4.771012211127E+00  4.698961622455E+00  4.626224095470E+00
  4.552819567903E+00  4.478769342542E+00  4.404096114344E+00  4.328823995751E+00
  4.252978539999E+00  4.176586762195E+00  4.099677157939E+00  4.022279719246E+00
  3.944425947525E+00  3.866148863359E+00  3.787483012833E+00  3.708464470124E+00
  3.629130836102E+00  3.549521232649E+00  3.469676292420E+00  3.389638143772E+00
  3.309450390563E+00  3.229158086550E+00  3.148807704110E+00  3.068447097003E+00
  2.988125456915E+00  2.907893263525E+00  2.827802227855E+00  2.747905228665E+00
  2.668256241694E+00  2.588910261548E+00  2.509923216075E+00  2.431351873079E+00
  2.353253739284E+00  2.275686951461E+00  2.198710159686E+00  2.122382402753E+00
  2.046762975783E+00  1.971911290146E+00  1.897886725859E+00  1.824748476679E+00
  1.752555388178E+00  1.681365789149E+00  1.611237316774E+00  1.542226736038E+00
  1.474389753971E+00  1.407780829357E+00  1.342452978661E+00  1.278457578972E+00
  1.215844168866E+00  1.154660248173E+00  1.094951077707E+00  1.036759480115E+00
  9.801256430425E-01  9.250869259510E-01  8.716776719127E-01  8.199290258390E-01
  7.698687606117E-01  7.215211126489E-01  6.749066284659E-01  6.300420238168E-01
  5.869400570085E-01  5.456094179723E-01  5.060546346550E-01  4.682759982482E-01
  4.322695087133E-01  3.980268419762E-01  3.655353400612E-01  3.347780253067E-01
  3.057336396540E-01  2.783767098259E-01  2.526776390146E-01  2.286028254776E-01
  2.061148081962E-01  1.851724394887E-01  1.657310841855E-01  1.477428446764E-01
  1.311568108254E-01  1.159193334237E-01  1.019743195276E-01  8.926354768938E-02
  7.772700076940E-02  6.730321369607E-02  5.792963323921E-02  4.954298658293E-02
  4.207965523244E-02  3.547605057347E-02  2.966898722998E-02  2.459605024126E-02
  2.019595201078E-02  1.640887497116E-02  1.317679596778E-02  1.044378849167E-02
  8.156299093438E-03  6.263394584822E-03  4.716976984023E-03  3.471963581611E-03
  2.486429993081E-03  1.721714615018E-03  1.142483506602E-03  7.167553665725E-04
  4.158869554036E-04  2.145200092179E-04  9.049139007121E-05  2.470889947207E-05
  9.958303278761E-07  5.907928392397E-06  2.852695936261E-05  6.023551443301E-05
  9.447801921807E-05  1.265131245206E-04  1.531627413512E-04  1.725629293398E-04
  1.839216538248E-04  1.872880937277E-04  1.833377160913E-04  1.731767453668E-04
  1.581689628062E-04  1.397869951796E-04  1.194894183744E-04  9.862413966676E-05
  7.835766454725E-05  5.962903306546E-05  4.312645966960E-05  2.928406048443E-05
  1.829553044218E-05  1.014126204570E-05  4.625193575252E-06  1.417645164436E-06
  1.005455381687E-07  2.117603212753E-07  1.285685607264E-06  2.887840437794E-06
  4.641844376905E-06  6.247861589507E-06  7.492287947656E-06  8.249109691355E-06
  8.473930802717E-06  8.192116927376E-06  7.482810184489E-06  6.460715934758E-06
  5.257546024573E-06  4.004832412022E-06  2.819521908289E-06  1.793359287092E-06
  9.866026458360E-07  4.261367597482E-07  1.076029634228E-07  7.897606198490E-10
  5.726087111390E-08  2.190592003133E-07  4.273246451991E-07  6.297939907877E-07
  7.863911338938E-07  8.724319939094E-07  8.793188622259E-07  8.129384082468E-07
  6.902632484554E-07  5.348539626553E-07  3.720444172402E-07  2.245617309971E-07
  1.091935107457E-07  3.489482481188E-08  2.463159218200E-09  0.000000000000E+00
  0.000000000000E+00  0.000000000000E+00
</data>
</radfunc>
</pseudocore-charge>
<semilocal-potentials set="scalar_relativistic">
<slps n="5" l="s" rc="2.40469881650">
<radfunc>
<data npts="290">
  5.488603815008E+01  5.485606666202E+01  5.476663794688E+01  5.461799299547E+01
  5.441246635338E+01  5.414422053143E+01  5.380559555712E+01  5.342224528864E+01
  5.299672350284E+01  5.250771887135E+01  5.196563119945E+01  5.138707930924E+01
  5.070225277637E+01  5.000329268111E+01  4.919936957998E+01  4.841791772180E+01
  4.754348478442E+01  4.673868820856E+01  4.586067669841E+01  4.490610508135E+01
  4.387220117704E+01  4.298656344587E+01  4.204820581350E+01  4.105692960842E+01
  4.001302027662E+01  3.891729687650E+01  3.777115444392E+01  3.687964191668E+01
  3.596195984390E+01  3.501938650717E+01  3.405340045154E+01  3.306567642590E+01
  3.205807810435E+01  3.103264752731E+01  2.999159129073E+01  2.893726360766E+01
  2.787214646447E+01  2.679882718920E+01  2.608003928735E+01  2.535959576718E+01
  2.463830888682E+01  2.391699439626E+01  2.319646783239E+01  2.247754081788E+01
  2.176101740011E+01  2.104769046520E+01  2.033833826151E+01  1.963372106483E+01
  1.893457801559E+01  1.824162415535E+01  1.755554768719E+01  1.687700748084E+01
  1.620663084006E+01  1.554501154582E+01  1.489270818524E+01  1.425024277207E+01
  1.361809966116E+01  1.299672475542E+01  1.238652500051E+01  1.178786815958E+01
  1.120108285720E+01  1.062645887935E+01  1.006424771427E+01  9.514663317001E+00
  8.977883079260E+00  8.454048985153E+00  7.943268932547E+00  7.692798927700E+00
  7.445618199632E+00  7.201731322404E+00  6.961141036102E+00  6.723848301953E+00
  6.489852358598E+00  6.259150779384E+00  6.031739530527E+00  5.807613030000E+00
  5.586764207006E+00  5.369184561909E+00  5.154864226484E+00  4.943792024364E+00
  4.735955531556E+00  4.531341136921E+00  4.329934102483E+00  4.131718623482E+00
  3.936677888044E+00  3.744794136386E+00  3.556048719443E+00  3.370422156840E+00
  3.187894194109E+00  3.008443859077E+00  2.832049517330E+00  2.658688926697E+00
  2.488339290659E+00  2.320977310634E+00  2.156579237050E+00  1.995120919164E+00
  1.836577853543E+00  1.680925231173E+00  1.528137983120E+00  1.378190824696E+00
  1.231058298089E+00  1.086714813380E+00  9.451346879360E-01  8.062921840970E-01
  6.701615451351E-01  5.367170294318E-01  4.059329428346E-01  2.777836691497E-01
  1.522436987321E-01  2.928765513398E-02 -9.110968022603E-02 -2.089733454090E-01
 -3.243281773512E-01 -4.371987933424E-01 -5.476095746167E-01 -6.555846520852E-01
 -7.611478942351E-01 -8.643228972183E-01 -9.651329771479E-01 -1.063601164616E+00
 -1.159750201445E+00 -1.253602539665E+00 -1.345180342735E+00 -1.434505488969E+00
 -1.521599577166E+00 -1.606483934406E+00 -1.689179625968E+00 -1.769707467317E+00
 -1.848088038087E+00 -1.924341697973E+00 -1.998488604430E+00 -2.070548732045E+00
 -2.140541893449E+00 -2.208487761578E+00 -2.274405893106E+00 -2.338315752804E+00
 -2.400236738587E+00 -2.460188206944E+00 -2.518189498435E+00 -2.574259962908E+00
 -2.628418984018E+00 -2.680686002622E+00 -2.731080538592E+00 -2.779622210512E+00
 -2.826330752711E+00 -2.871226029059E+00 -2.914328042878E+00 -2.955656942329E+00
 -2.995233020568E+00 -3.033076709989E+00 -3.069208569798E+00 -3.103649266209E+00
 -3.136419544520E+00 -3.167540192354E+00 -3.197031993397E+00 -3.224915670976E+00
 -3.251211820927E+00 -3.275940833274E+00 -3.299122802342E+00 -3.320777425107E+00