Te    ONCVPSP-3.3.0  r_core=   2.40470   2.21206   2.61411
52.0000      6.0000      180506    zatom,zion,pspd
8 -116133   2     4   600     0    pspcod,pspxc,lmax,lloc,mmax,r2well
5.99000000  9.00000000  0.00000000    rchrg fchrg qchrg
2     4     3     0    nproj
3     1           extension_switch
4     4     0    nprojso
0                         4.1886772688299D-01  4.5021754567828D+00
1  0.0000000000000D+00  4.4335243809535D-11 -1.0143885731395D-11
2  1.0000000000000D-02 -1.1581016960275D-02  2.4741403734406D-02
3  2.0000000000000D-02 -2.3097919711184D-02  4.9461131700364D-02
4  3.0000000000000D-02 -3.4486969288400D-02  7.4137592301511D-02
5  4.0000000000000D-02 -4.5685175099736D-02  9.8749361809541D-02
6  5.0000000000000D-02 -5.6630663827611D-02  1.2327526711053D-01
7  6.0000000000000D-02 -6.7263042022552D-02  1.4769446703317D-01
8  7.0000000000000D-02 -7.7523750336923D-02  1.7198653179823D-01
9  8.0000000000000D-02 -8.7356407392356D-02  1.9613152013851D-01
10  9.0000000000000D-02 -9.6707141329435D-02  2.2011005365144D-01
11  1.0000000000000D-01 -1.0552490715357D-01  2.4390338796104D-01
12  1.1000000000000D-01 -1.1376178806645D-01  2.6749348028375D-01
13  1.2000000000000D-01 -1.2137327905772D-01  2.9086305301158D-01
14  1.3000000000000D-01 -1.2831855112567D-01  3.1399565294794D-01
15  1.4000000000000D-01 -1.3456069459935D-01  3.3687570585511D-01
16  1.5000000000000D-01 -1.4006694014536D-01  3.5948856599764D-01
17  1.6000000000000D-01 -1.4480885616224D-01  3.8182056039325D-01
18  1.7000000000000D-01 -1.4876252139126D-01  4.0385902751183D-01
19  1.8000000000000D-01 -1.5190867170504D-01  4.2559235019305D-01
20  1.9000000000000D-01 -1.5423282017403D-01  4.4700998258521D-01
21  2.0000000000000D-01 -1.5572534965421D-01  4.6810247094032D-01
22  2.1000000000000D-01 -1.5638157728721D-01  4.8886146813445D-01
23  2.2000000000000D-01 -1.5620179045548D-01  5.0927974181668D-01
24  2.3000000000000D-01 -1.5519125388921D-01  5.2935117612540D-01
25  2.4000000000000D-01 -1.5336018777818D-01  5.4907076694633D-01
26  2.5000000000000D-01 -1.5072371689874D-01  5.6843461072222D-01
27  2.6000000000000D-01 -1.4730179092446D-01  5.8743988686065D-01
28  2.7000000000000D-01 -1.4311907624588D-01  6.0608483382178D-01
29  2.8000000000000D-01 -1.3820481978141D-01  6.2436871900373D-01
30  2.9000000000000D-01 -1.3259268541538D-01  6.4229180257813D-01
31  3.0000000000000D-01 -1.2632056385060D-01  6.5985529546302D-01
32  3.1000000000000D-01 -1.1943035681050D-01  6.7706131165355D-01
33  3.2000000000000D-01 -1.1196773666931D-01  6.9391281516376D-01
34  3.3000000000000D-01 -1.0398188272666D-01  7.1041356186360D-01
35  3.4000000000000D-01 -9.5525195475431D-02  7.2656803652582D-01
36  3.5000000000000D-01 -8.6652990337256D-02  7.4238138542519D-01
37  3.6000000000000D-01 -7.7423172458506D-02  7.5785934485975D-01
38  3.7000000000000D-01 -6.7895894269985D-02  7.7300816598812D-01
39  3.8000000000000D-01 -5.8133197615650D-02  7.8783453640036D-01
40  3.9000000000000D-01 -4.8198642348475D-02  8.0234549886004D-01
41  4.0000000000000D-01 -3.8156923375015D-02  8.1654836767438D-01
42  4.1000000000000D-01 -2.8073478203362D-02  8.3045064316494D-01
43  4.2000000000000D-01 -1.8014087112043D-02  8.4405992472566D-01
44  4.3000000000000D-01 -8.0444681093788D-03  8.5738382296594D-01
45  4.4000000000000D-01  1.7701311064634D-03  8.7042987144539D-01
46  4.5000000000000D-01  1.1365341947181D-02  8.8320543851294D-01
47  4.6000000000000D-01  2.0678082236312D-02  8.9571763976613D-01
48  4.7000000000000D-01  2.9646959750487D-02  9.0797325164735D-01
49  4.8000000000000D-01  3.8212669742397D-02  9.1997862669162D-01
50  4.9000000000000D-01  4.6318384206067D-02  9.3173961093536D-01
51  5.0000000000000D-01  5.3910130674672D-02  9.4326146398858D-01
52  5.1000000000000D-01  6.0937158382366D-02  9.5454878226207D-01
53  5.2000000000000D-01  6.7352289675058D-02  9.6560542582852D-01
54  5.3000000000000D-01  7.3112254619024D-02  9.7643444938080D-01
55  5.4000000000000D-01  7.8178006832476D-02  9.8703803773244D-01
56  5.5000000000000D-01  8.2515018650890D-02  9.9741744628470D-01
57  5.6000000000000D-01  8.6093553834462D-02  1.0075729468616D+00
58  5.7000000000000D-01  8.8888916132185D-02  1.0175037792888D+00
59  5.8000000000000D-01  9.0881672133834D-02  1.0272081090650D+00
60  5.9000000000000D-01  9.2057846965958D-02  1.0366829914445D+00
61  6.0000000000000D-01  9.2409091521690D-02  1.0459243422186D+00
62  6.1000000000000D-01  9.1932820055648D-02  1.0549269154496D+00
63  6.2000000000000D-01  9.0632317122710D-02  1.0636842883771D+00
64  6.3000000000000D-01  8.8516812995088D-02  1.0721888536794D+00
65  6.4000000000000D-01  8.5601526851036D-02  1.0804318192355D+00
66  6.5000000000000D-01  8.1907677194126D-02  1.0884032154951D+00
67  6.6000000000000D-01  7.7462459130694D-02  1.0960919105224D+00
68  6.7000000000000D-01  7.2298988304149D-02  1.1034856327433D+00
69  6.8000000000000D-01  6.6456211459819D-02  1.1105710013802D+00
70  6.9000000000000D-01  5.9978783788771D-02  1.1173335645221D+00
71  7.0000000000000D-01  5.2916913374721D-02  1.1237578447327D+00
72  7.1000000000000D-01  4.5326173243687D-02  1.1298273920617D+00
73  7.2000000000000D-01  3.7267281689979D-02  1.1355248442823D+00
74  7.3000000000000D-01  2.8805851723438D-02  1.1408319941377D+00
75  7.4000000000000D-01  2.0012110651467D-02  1.1457298633412D+00
76  7.5000000000000D-01  1.0960590973918D-02  1.1501987830361D+00
77  7.6000000000000D-01  1.7297939275979D-03  1.1542184803838D+00
78  7.7000000000000D-01 -7.5981728282028D-03  1.1577681709146D+00
79  7.8000000000000D-01 -1.6937981747474D-02  1.1608266562390D+00
80  7.9000000000000D-01 -2.6201494377275D-02  1.1633724266881D+00
81  8.0000000000000D-01 -3.5298190872613D-02  1.1653837684191D+00
82  8.1000000000000D-01 -4.4135618015153D-02  1.1668388744945D+00
83  8.2000000000000D-01 -5.2619853591914D-02  1.1677159594179D+00
84  8.3000000000000D-01 -6.0655984887118D-02  1.1679933765848D+00
85  8.4000000000000D-01 -6.8148598949067D-02  1.1676497380873D+00
86  8.5000000000000D-01 -7.5002282213287D-02  1.1666640362922D+00
87  8.6000000000000D-01 -8.1122126994956D-02  1.1650157665963D+00
88  8.7000000000000D-01 -8.6414242307352D-02  1.1626850507515D+00
89  8.8000000000000D-01 -9.0786266419927D-02  1.1596527601411D+00
90  8.9000000000000D-01 -9.4147878538783D-02  1.1559006383829D+00
91  9.0000000000000D-01 -9.6411306975480D-02  1.1514114226321D+00
92  9.1000000000000D-01 -9.7491831166265D-02  1.1461689629549D+00
93  9.2000000000000D-01 -9.7308274913378D-02  1.1401583391475D+00
94  9.3000000000000D-01 -9.5783488243751D-02  1.1333659743824D+00
95  9.4000000000000D-01 -9.2844815316998D-02  1.1257797450711D+00
96  9.5000000000000D-01 -8.8424545865004D-02  1.1173890863463D+00
97  9.6000000000000D-01 -8.2460347709034D-02  1.1081850925813D+00
98  9.7000000000000D-01 -7.4895677976349D-02  1.0981606123837D+00
99  9.8000000000000D-01 -6.5680170729909D-02  1.0873103375223D+00
100  9.9000000000000D-01 -5.4769998821713D-02  1.0756308852679D+00
101  1.0000000000000D+00 -4.2128207899020D-02  1.0631208736608D+00
102  1.0100000000000D+00 -2.7725020614686D-02  1.0497809892434D+00
103  1.0200000000000D+00 -1.1538109229335D-02  1.0356140468315D+00
104  1.0300000000000D+00  6.4471650613070D-03  1.0206250409304D+00
105  1.0400000000000D+00  2.6237547582857D-02  1.0048211884432D+00
106  1.0500000000000D+00  4.7831721769756D-02  9.8821196235292D-01
107  1.0600000000000D+00  7.1220178061390D-02  9.7080911610407D-01
108  1.0700000000000D+00  9.6385121096178D-02  9.5262669845283D-01
109  1.0800000000000D+00  1.2330041601676D-01  9.3368105859645D-01
110  1.0900000000000D+00  1.5193157449910D-01  9.1399084144158D-01
111  1.1000000000000D+00  1.8223578093197D-01  8.9357697291473D-01
112  1.1100000000000D+00  2.1416195897421D-01  8.7246263526586D-01
113  1.1200000000000D+00  2.4765087850389D-01  8.5067323236698D-01
114  1.1300000000000D+00  2.8263530278217D-01  8.2823634505306D-01
115  1.1400000000000D+00  3.1904017544010D-01  8.0518167660393D-01
116  1.1500000000000D+00  3.5678284672578D-01  7.8154098850662D-01
117  1.1600000000000D+00  3.9577333819976D-01  7.5734802669692D-01
118  1.1700000000000D+00  4.3591464489810D-01  7.3263843851944D-01
119  1.1800000000000D+00  4.7710307378823D-01  7.0744968069172D-01
120  1.1900000000000D+00  5.1922861716021D-01  6.8182091860161D-01
121  1.2000000000000D+00  5.6217535938240D-01  6.5579291731829D-01
122  1.2100000000000D+00  6.0582191527857D-01  6.2940792473850D-01
123  1.2200000000000D+00  6.5004189828088D-01  6.0270954731407D-01
124  1.2300000000000D+00  6.9470441625167D-01  5.7574261886982D-01
125  1.2400000000000D+00  7.3967459276483D-01  5.4855306304520D-01
126  1.2500000000000D+00  7.8481411152972D-01  5.2118774991944D-01
127  1.2600000000000D+00  8.2998178145817D-01  4.9369434742351D-01
128  1.2700000000000D+00  8.7503411975824D-01  4.6612116817114D-01
129  1.2800000000000D+00  9.1982595038732D-01  4.3851701235301D-01
130  1.2900000000000D+00  9.6421101505622D-01  4.1093100737306D-01
131  1.3000000000000D+00  1.0080425938918D+00  3.8341244492641D-01
132  1.3100000000000D+00  1.0511741328575D+00  3.5601061622060D-01
133  1.3200000000000D+00  1.0934598749199D+00  3.2877464606950D-01
134  1.3300000000000D+00  1.1347554919460D+00  3.0175332659096D-01
135  1.3400000000000D+00  1.1749187143044D+00  2.7499495124200D-01
136  1.3500000000000D+00  1.2138099550977D+00  2.4854714993799D-01
137  1.3600000000000D+00  1.2512929260447D+00  2.2245672598145D-01
138  1.3700000000000D+00  1.2872352419373D+00  1.9676949554794D-01
139  1.3800000000000D+00  1.3215090107697D+00  1.7153013043846D-01
140  1.3900000000000D+00  1.3539914066280D+00  1.4678200480945D-01
141  1.4000000000000D+00  1.3845652224215D+00  1.2256704659381D-01
142  1.4100000000000D+00  1.4131193998952D+00  9.8925594244736D-02
143  1.4200000000000D+00  1.4395495340406D+00  7.5896259507609D-02
144  1.4300000000000D+00  1.4637583495680D+00  5.3515796800444D-02
145  1.4400000000000D+00  1.4856561470055D+00  3.1818979805459D-02
146  1.4500000000000D+00  1.5051612159713D+00  1.0838485878976D-02
147  1.4600000000000D+00  1.5222002139546D+00 -9.3952112958116D-03
148  1.4700000000000D+00  1.5367085080520D+00 -2.8853940182736D-02
149  1.4800000000000D+00  1.5486304785128D+00 -4.7511920689385D-02
150  1.4900000000000D+00  1.5579197820746D+00 -6.5345843780078D-02
151  1.5000000000000D+00  1.5645395738430D+00 -8.2334941078527D-02
152  1.5100000000000D+00  1.5684626867477D+00 -9.8461044198896D-02
153  1.5200000000000D+00  1.5696717669927D+00 -1.1370863339985D-01
154  1.5300000000000D+00  1.5681593657293D+00 -1.2806487558122D-01
155  1.5400000000000D+00  1.5639279851202D+00 -1.4151965115859D-01
156  1.5500000000000D+00  1.5569900798582D+00 -1.5406557003234D-01
157  1.5600000000000D+00  1.5473680127667D+00 -1.6569797629396D-01
158  1.5700000000000D+00  1.5350939656368D+00 -1.7641494190837D-01
159  1.5800000000000D+00  1.5202098049266D+00 -1.8621724924986D-01
160  1.5900000000000D+00  1.5027669033015D+00 -1.9510836268961D-01
161  1.6000000000000D+00  1.4828259177344D+00 -2.0309438937139D-01
162  1.6100000000000D+00  1.4604565249432D+00 -2.1018402932488D-01
163  1.6200000000000D+00  1.4357371159315D+00 -2.1638851530322D-01
164  1.6300000000000D+00  1.4087544502571D+00 -2.2172154245704D-01
165  1.6400000000000D+00  1.3796032727178D+00 -2.2619918845322D-01
166  1.6500000000000D+00  1.3483858930305D+00 -2.2983982413750D-01
167  1.6600000000000D+00  1.3152117319284D+00 -2.3266401552785D-01
168  1.6700000000000D+00  1.2801968343398D+00 -2.3469441725669D-01
169  1.6800000000000D+00  1.2434633535837D+00 -2.3595565837530D-01
170  1.6900000000000D+00  1.2051390074876D+00 -2.3647422069303D-01
171  1.7000000000000D+00  1.1653565106201D+00 -2.3627831063331D-01
172  1.7100000000000D+00  1.1242529839385D+00 -2.3539772486981D-01
173  1.7200000000000D+00  1.0819693460523D+00 -2.3386371073413D-01
174  1.7300000000000D+00  1.0386496879279D+00 -2.3170882178126D-01
175  1.7400000000000D+00  9.9444063501284D-01 -2.2896676945864D-01
176  1.7500000000000D+00  9.4949069921519D-01 -2.2567227140976D-01
177  1.7600000000000D+00  9.0394962432349D-01 -2.2186089727070D-01
178  1.7700000000000D+00  8.5796772790692D-01 -2.1756891263683D-01
179  1.7800000000000D+00  8.1169524282710D-01 -2.1283312195325D-01
180  1.7900000000000D+00  7.6528166185711D-01 -2.0769071112190D-01
181  1.8000000000000D+00  7.1887508819482D-01 -2.0217909049541D-01
182  1.8100000000000D+00  6.7262159546849D-01 -1.9633573908894D-01
183  1.8200000000000D+00  6.2666460002180D-01 -1.9019805067144D-01
184  1.8300000000000D+00  5.8114424856762D-01 -1.8380318246961D-01
185  1.8400000000000D+00  5.3619682461642D-01 -1.7718790727503D-01
186  1.8500000000000D+00  4.9195417537829D-01 -1.7038846939066D-01
187  1.8600000000000D+00  4.4854316403836D-01 -1.6344044553468D-01
188  1.8700000000000D+00  4.0608514669193D-01 -1.5637861060621D-01
189  1.8800000000000D+00  3.6469548089319D-01 -1.4923680989026D-01
190  1.8900000000000D+00  3.2448306299139D-01 -1.4204783713179D-01
191  1.9000000000000D+00  2.8554990156714D-01 -1.3484332014688D-01
192  1.9100000000000D+00  2.4799072449936D-01 -1.2765361346916D-01
193  1.9200000000000D+00  2.1189262457569D-01 -1.2050769917471D-01
194  1.9300000000000D+00  1.7733474404643D-01 -1.1343309601850D-01
195  1.9400000000000D+00  1.4438799825308D-01 -1.0645577695688D-01
196  1.9500000000000D+00  1.1311484368775D-01 -9.9600096304166D-02
197  1.9600000000000D+00  8.3569084194884D-02 -9.2888725147290D-02
198  1.9700000000000D+00  5.5795725547718D-02 -8.6342597374138D-02
199  1.9800000000000D+00  2.9830869170351D-02 -7.9980864267211D-02
200  1.9900000000000D+00  5.7016529444753D-03 -7.3820859506048D-02
201  2.0000000000000D+00 -1.6573764894480D-02 -6.7878073711490D-02
202  2.0100000000000D+00 -3.6986179329451D-02 -6.2166138447111D-02
203  2.0200000000000D+00 -5.5535265084871D-02 -5.6696820750272D-02
204  2.0300000000000D+00 -7.2229465638078D-02 -5.1480026054597D-02
205  2.0400000000000D+00 -8.7085834683906D-02 -4.6523811844782D-02
206  2.0500000000000D+00 -1.0012984098023D-01 -4.1834409579627D-02
207  2.0600000000000D+00 -1.1139513212357D-01 -3.7416255949659D-02
208  2.0700000000000D+00 -1.2092325890286D-01 -3.3272033134152D-02
209  2.0800000000000D+00 -1.2876336745275D-01 -2.9402716434849D-02
210  2.0900000000000D+00 -1.3497185171588D-01 -2.5807631066232D-02
211  2.1000000000000D+00 -1.3961197820855D-01 -2.2484515366922D-02
212  2.1100000000000D+00 -1.4275347844110D-01 -1.9429591562246D-02
213  2.1200000000000D+00 -1.4447211333920D-01 -1.6637643114626D-02
214  2.1300000000000D+00 -1.4484921535450D-01 -1.4102097378834D-02
215  2.1400000000000D+00 -1.4397120861888D-01 -1.1815113790088D-02
216  2.1500000000000D+00 -1.4192909430730D-01 -9.7676792937618D-03
217  2.1600000000000D+00 -1.3881794058948D-01 -7.9497042786914D-03
218  2.1700000000000D+00 -1.3473641501131D-01 -6.3501119318844D-03
219  2.1800000000000D+00 -1.2978602314583D-01 -4.9569814007483D-03
220  2.1900000000000D+00 -1.2407075649698D-01 -3.7576171442339D-03
221  2.2000000000000D+00 -1.1769666735734D-01 -2.7386345544899D-03
222  2.2100000000000D+00 -1.1077128107516D-01 -1.8860740124703D-03
223  2.2200000000000D+00 -1.0340244554962D-01 -1.1856137102440D-03
224  2.2300000000000D+00 -9.5697511623928D-02 -6.2272059087364D-04
225  2.2400000000000D+00 -8.7762440776190D-02 -1.8282685932646D-04
226  2.2500000000000D+00 -7.9700952045370D-02  1.4850236075299D-04
227  2.2600000000000D+00 -7.1613300930592D-02  3.8533659258344D-04
228  2.2700000000000D+00 -6.3596156035480D-02  5.4133928509558D-04
229  2.2800000000000D+00 -5.5742061149448D-02  6.2965273983121D-04
230  2.2900000000000D+00 -4.8138984582722D-02  6.6279995042626D-04
231  2.3000000000000D+00 -4.0869722546070D-02  6.5256418966853D-04
232  2.3100000000000D+00 -3.4011514234805D-02  6.0990405125308D-04
233  2.3200000000000D+00 -2.7635617432783D-02  5.4486373134782D-04
234  2.3300000000000D+00 -2.1813348322811D-02  4.6670568568593D-04
235  2.3400000000000D+00 -1.6589977273326D-02  3.8297911424139D-04
236  2.3500000000000D+00 -1.2007780621605D-02  3.0012747300094D-04
237  2.3600000000000D+00 -8.1053830933400D-03  2.2345074336261D-04
238  2.3700000000000D+00 -4.9850350559416D-03  1.6035899836068D-04
239  2.3800000000000D+00 -2.7092767851804D-03  1.1610529335436D-04
240  2.3900000000000D+00 -1.2487113980566D-03  8.9949462488077D-05
241  2.4000000000000D+00 -4.2951795394428D-04  7.1968028583223D-05
242  2.4100000000000D+00 -5.6114240857668D-05  5.1589831784693D-05
243  2.4200000000000D+00  4.8696341801203D-05  2.7312985127968D-05
244  2.4300000000000D+00  2.0333492900418D-05  5.9374196749182D-06
245  2.4400000000000D+00 -1.9768179684558D-05 -4.6010373776565D-06
246  2.4500000000000D+00 -2.7402654982730D-05 -5.2548631351605D-06
247  2.4600000000000D+00 -7.7475265673835D-06 -1.3131665494219D-06
248  2.4700000000000D+00  2.9640635197124D-06  1.0530725984316D-06
249  2.4800000000000D+00  3.9307440519513D-06  1.2495559616748D-06
250  2.4900000000000D+00  9.9514854194805D-07  2.9062141342280D-07
251  2.5000000000000D+00  4.7377846864781D-07 -1.4166914730371D-07
252  2.5100000000000D+00  5.6832061610265D-07 -1.6993912219813D-07
253  2.5200000000000D+00  1.3205816695452D-07 -3.9488007887597D-08
254  2.5300000000000D+00  0.0000000000000D+00  0.0000000000000D+00
255  2.5400000000000D+00  0.0000000000000D+00  0.0000000000000D+00
256  2.5500000000000D+00  0.0000000000000D+00  0.0000000000000D+00
257  2.5600000000000D+00  0.0000000000000D+00  0.0000000000000D+00
258  2.5700000000000D+00  0.0000000000000D+00  0.0000000000000D+00
259  2.5800000000000D+00  0.0000000000000D+00  0.0000000000000D+00
260  2.5900000000000D+00  0.0000000000000D+00  0.0000000000000D+00
261  2.6000000000000D+00  0.0000000000000D+00  0.0000000000000D+00
262  2.6100000000000D+00  0.0000000000000D+00  0.0000000000000D+00
263  2.6200000000000D+00  0.0000000000000D+00  0.0000000000000D+00
264  2.6300000000000D+00  0.0000000000000D+00  0.0000000000000D+00
265  2.6400000000000D+00  0.0000000000000D+00  0.0000000000000D+00
266  2.6500000000000D+00  0.0000000000000D+00  0.0000000000000D+00
267  2.6600000000000D+00  0.0000000000000D+00  0.0000000000000D+00
268  2.6700000000000D+00  0.0000000000000D+00  0.0000000000000D+00
269  2.6800000000000D+00  0.0000000000000D+00  0.0000000000000D+00
270  2.6900000000000D+00  0.0000000000000D+00  0.0000000000000D+00
271  2.7000000000000D+00  0.0000000000000D+00  0.0000000000000D+00
272  2.7100000000000D+00  0.0000000000000D+00  0.0000000000000D+00
273  2.7200000000000D+00  0.0000000000000D+00  0.0000000000000D+00
274  2.7300000000000D+00  0.0000000000000D+00  0.0000000000000D+00
275  2.7400000000000D+00  0.0000000000000D+00  0.0000000000000D+00
276  2.7500000000000D+00  0.0000000000000D+00  0.0000000000000D+00
277  2.7600000000000D+00  0.0000000000000D+00  0.0000000000000D+00
278  2.7700000000000D+00  0.0000000000000D+00  0.0000000000000D+00
279  2.7800000000000D+00  0.0000000000000D+00  0.0000000000000D+00
280  2.7900000000000D+00  0.0000000000000D+00  0.0000000000000D+00
281  2.8000000000000D+00  0.0000000000000D+00  0.0000000000000D+00
282  2.8100000000000D+00  0.0000000000000D+00  0.0000000000000D+00
283  2.8200000000000D+00  0.0000000000000D+00  0.0000000000000D+00
284  2.8300000000000D+00  0.0000000000000D+00  0.0000000000000D+00
285  2.8400000000000D+00  0.0000000000000D+00  0.0000000000000D+00
286  2.8500000000000D+00  0.0000000000000D+00  0.0000000000000D+00
287  2.8600000000000D+00  0.0000000000000D+00  0.0000000000000D+00
288  2.8700000000000D+00  0.0000000000000D+00  0.0000000000000D+00
289  2.8800000000000D+00  0.0000000000000D+00  0.0000000000000D+00
290  2.8900000000000D+00  0.0000000000000D+00  0.0000000000000D+00
291  2.9000000000000D+00  0.0000000000000D+00  0.0000000000000D+00
292  2.9100000000000D+00  0.0000000000000D+00  0.0000000000000D+00
293  2.9200000000000D+00  0.0000000000000D+00  0.0000000000000D+00
294  2.9300000000000D+00  0.0000000000000D+00  0.0000000000000D+00
295  2.9400000000000D+00  0.0000000000000D+00  0.0000000000000D+00
296  2.9500000000000D+00  0.0000000000000D+00  0.0000000000000D+00
297  2.9600000000000D+00  0.0000000000000D+00  0.0000000000000D+00
298  2.9700000000000D+00  0.0000000000000D+00  0.0000000000000D+00
299  2.9800000000000D+00  0.0000000000000D+00  0.0000000000000D+00
300  2.9900000000000D+00  0.0000000000000D+00  0.0000000000000D+00
301  3.0000000000000D+00  0.0000000000000D+00  0.0000000000000D+00
302  3.0100000000000D+00  0.0000000000000D+00  0.0000000000000D+00
303  3.0200000000000D+00  0.0000000000000D+00  0.0000000000000D+00
304  3.0300000000000D+00  0.0000000000000D+00  0.0000000000000D+00
305  3.0400000000000D+00  0.0000000000000D+00  0.0000000000000D+00
306  3.0500000000000D+00  0.0000000000000D+00  0.0000000000000D+00
307  3.0600000000000D+00  0.0000000000000D+00  0.0000000000000D+00
308  3.0700000000000D+00  0.0000000000000D+00  0.0000000000000D+00
309  3.0800000000000D+00  0.0000000000000D+00  0.0000000000000D+00
310  3.0900000000000D+00  0.0000000000000D+00  0.0000000000000D+00
311  3.1000000000000D+00  0.0000000000000D+00  0.0000000000000D+00
312  3.1100000000000D+00  0.0000000000000D+00  0.0000000000000D+00
313  3.1200000000000D+00  0.0000000000000D+00  0.0000000000000D+00
314  3.1300000000000D+00  0.0000000000000D+00  0.0000000000000D+00
315  3.1400000000000D+00  0.0000000000000D+00  0.0000000000000D+00
316  3.1500000000000D+00  0.0000000000000D+00  0.0000000000000D+00
317  3.1600000000000D+00  0.0000000000000D+00  0.0000000000000D+00
318  3.1700000000000D+00  0.0000000000000D+00  0.0000000000000D+00
319  3.1800000000000D+00  0.0000000000000D+00  0.0000000000000D+00
320  3.1900000000000D+00  0.0000000000000D+00  0.0000000000000D+00
321  3.2000000000000D+00  0.0000000000000D+00  0.0000000000000D+00
322  3.2100000000000D+00  0.0000000000000D+00  0.0000000000000D+00
323  3.2200000000000D+00  0.0000000000000D+00  0.0000000000000D+00
324  3.2300000000000D+00  0.0000000000000D+00  0.0000000000000D+00
325  3.2400000000000D+00  0.0000000000000D+00  0.0000000000000D+00
326  3.2500000000000D+00  0.0000000000000D+00  0.0000000000000D+00
327  3.2600000000000D+00  0.0000000000000D+00  0.0000000000000D+00
328  3.2700000000000D+00  0.0000000000000D+00  0.0000000000000D+00
329  3.2800000000000D+00  0.0000000000000D+00  0.0000000000000D+00
330  3.2900000000000D+00  0.0000000000000D+00  0.0000000000000D+00
331  3.3000000000000D+00  0.0000000000000D+00  0.0000000000000D+00
332  3.3100000000000D+00  0.0000000000000D+00  0.0000000000000D+00
333  3.3200000000000D+00  0.0000000000000D+00  0.0000000000000D+00
334  3.3300000000000D+00  0.0000000000000D+00  0.0000000000000D+00
335  3.3400000000000D+00  0.0000000000000D+00  0.0000000000000D+00
336  3.3500000000000D+00  0.0000000000000D+00  0.0000000000000D+00
337  3.3600000000000D+00  0.0000000000000D+00  0.0000000000000D+00
338  3.3700000000000D+00  0.0000000000000D+00  0.0000000000000D+00
339  3.3800000000000D+00  0.0000000000000D+00  0.0000000000000D+00
340  3.3900000000000D+00  0.0000000000000D+00  0.0000000000000D+00
341  3.4000000000000D+00  0.0000000000000D+00  0.0000000000000D+00
342  3.4100000000000D+00  0.0000000000000D+00  0.0000000000000D+00
343  3.4200000000000D+00  0.0000000000000D+00  0.0000000000000D+00
344  3.4300000000000D+00  0.0000000000000D+00  0.0000000000000D+00
345  3.4400000000000D+00  0.0000000000000D+00  0.0000000000000D+00
346  3.4500000000000D+00  0.0000000000000D+00  0.0000000000000D+00
347  3.4600000000000D+00  0.0000000000000D+00  0.0000000000000D+00
348  3.4700000000000D+00  0.0000000000000D+00  0.0000000000000D+00
349  3.4800000000000D+00  0.0000000000000D+00  0.0000000000000D+00
350  3.4900000000000D+00  0.0000000000000D+00  0.0000000000000D+00
351  3.5000000000000D+00  0.0000000000000D+00  0.0000000000000D+00
352  3.5100000000000D+00  0.0000000000000D+00  0.0000000000000D+00
353  3.5200000000000D+00  0.0000000000000D+00  0.0000000000000D+00
354  3.5300000000000D+00  0.0000000000000D+00  0.0000000000000D+00
355  3.5400000000000D+00  0.0000000000000D+00  0.0000000000000D+00
356  3.5500000000000D+00  0.0000000000000D+00  0.0000000000000D+00
357  3.5600000000000D+00  0.0000000000000D+00  0.0000000000000D+00
358  3.5700000000000D+00  0.0000000000000D+00  0.0000000000000D+00
359  3.5800000000000D+00  0.0000000000000D+00  0.0000000000000D+00
360  3.5900000000000D+00  0.0000000000000D+00  0.0000000000000D+00
361  3.6000000000000D+00  0.0000000000000D+00  0.0000000000000D+00
362  3.6100000000000D+00  0.0000000000000D+00  0.0000000000000D+00
363  3.6200000000000D+00  0.0000000000000D+00  0.0000000000000D+00
364  3.6300000000000D+00  0.0000000000000D+00  0.0000000000000D+00
365  3.6400000000000D+00  0.0000000000000D+00  0.0000000000000D+00
366  3.6500000000000D+00  0.0000000000000D+00  0.0000000000000D+00
367  3.6600000000000D+00  0.0000000000000D+00  0.0000000000000D+00
368  3.6700000000000D+00  0.0000000000000D+00  0.0000000000000D+00
369  3.6800000000000D+00  0.0000000000000D+00  0.0000000000000D+00
370  3.6900000000000D+00  0.0000000000000D+00  0.0000000000000D+00
371  3.7000000000000D+00  0.0000000000000D+00  0.0000000000000D+00
372  3.7100000000000D+00  0.0000000000000D+00  0.0000000000000D+00
373  3.7200000000000D+00  0.0000000000000D+00  0.0000000000000D+00
374  3.7300000000000D+00  0.0000000000000D+00  0.0000000000000D+00
375  3.7400000000000D+00  0.0000000000000D+00  0.0000000000000D+00
376  3.7500000000000D+00  0.0000000000000D+00  0.0000000000000D+00
377  3.7600000000000D+00  0.0000000000000D+00  0.0000000000000D+00
378  3.7700000000000D+00  0.0000000000000D+00  0.0000000000000D+00
379  3.7800000000000D+00  0.0000000000000D+00  0.0000000000000D+00
380  3.7900000000000D+00  0.0000000000000D+00  0.0000000000000D+00
381  3.8000000000000D+00  0.0000000000000D+00  0.0000000000000D+00
382  3.8100000000000D+00  0.0000000000000D+00  0.0000000000000D+00
383  3.8200000000000D+00  0.0000000000000D+00  0.0000000000000D+00
384  3.8300000000000D+00  0.0000000000000D+00  0.0000000000000D+00
385  3.8400000000000D+00  0.0000000000000D+00  0.0000000000000D+00
386  3.8500000000000D+00  0.0000000000000D+00  0.0000000000000D+00
387  3.8600000000000D+00  0.0000000000000D+00  0.0000000000000D+00
388  3.8700000000000D+00  0.0000000000000D+00  0.0000000000000D+00
389  3.8800000000000D+00  0.0000000000000D+00  0.0000000000000D+00
390  3.8900000000000D+00  0.0000000000000D+00  0.0000000000000D+00
391  3.9000000000000D+00  0.0000000000000D+00  0.0000000000000D+00
392  3.9100000000000D+00  0.0000000000000D+00  0.0000000000000D+00
393  3.9200000000000D+00  0.0000000000000D+00  0.0000000000000D+00
394  3.9300000000000D+00  0.0000000000000D+00  0.0000000000000D+00
395  3.9400000000000D+00  0.0000000000000D+00  0.0000000000000D+00
396  3.9500000000000D+00  0.0000000000000D+00  0.0000000000000D+00
397  3.9600000000000D+00  0.0000000000000D+00  0.0000000000000D+00
398  3.9700000000000D+00  0.0000000000000D+00  0.0000000000000D+00
399  3.9800000000000D+00  0.0000000000000D+00  0.0000000000000D+00
400  3.9900000000000D+00  0.0000000000000D+00  0.0000000000000D+00
401  4.0000000000000D+00  0.0000000000000D+00  0.0000000000000D+00
402  4.0100000000000D+00  0.0000000000000D+00  0.0000000000000D+00
403  4.0200000000000D+00  0.0000000000000D+00  0.0000000000000D+00
404  4.0300000000000D+00  0.0000000000000D+00  0.0000000000000D+00
405  4.0400000000000D+00  0.0000000000000D+00  0.0000000000000D+00
406  4.0500000000000D+00  0.0000000000000D+00  0.0000000000000D+00
407  4.0600000000000D+00  0.0000000000000D+00  0.0000000000000D+00
408  4.0700000000000D+00  0.0000000000000D+00  0.0000000000000D+00
409  4.0800000000000D+00  0.0000000000000D+00  0.0000000000000D+00
410  4.0900000000000D+00  0.0000000000000D+00  0.0000000000000D+00
411  4.1000000000000D+00  0.0000000000000D+00  0.0000000000000D+00
412  4.1100000000000D+00  0.0000000000000D+00  0.0000000000000D+00
413  4.1200000000000D+00  0.0000000000000D+00  0.0000000000000D+00
414  4.1300000000000D+00  0.0000000000000D+00  0.0000000000000D+00
415  4.1400000000000D+00  0.0000000000000D+00  0.0000000000000D+00
416  4.1500000000000D+00  0.0000000000000D+00  0.0000000000000D+00
417  4.1600000000000D+00  0.0000000000000D+00  0.0000000000000D+00
418  4.1700000000000D+00  0.0000000000000D+00  0.0000000000000D+00
419  4.1800000000000D+00  0.0000000000000D+00  0.0000000000000D+00
420  4.1900000000000D+00  0.0000000000000D+00  0.0000000000000D+00
421  4.2000000000000D+00  0.0000000000000D+00  0.0000000000000D+00
422  4.2100000000000D+00  0.0000000000000D+00  0.0000000000000D+00
423  4.2200000000000D+00  0.0000000000000D+00  0.0000000000000D+00
424  4.2300000000000D+00  0.0000000000000D+00  0.0000000000000D+00
425  4.2400000000000D+00  0.0000000000000D+00  0.0000000000000D+00
426  4.2500000000000D+00  0.0000000000000D+00  0.0000000000000D+00
427  4.2600000000000D+00  0.0000000000000D+00  0.0000000000000D+00
428  4.2700000000000D+00  0.0000000000000D+00  0.0000000000000D+00
429  4.2800000000000D+00  0.0000000000000D+00  0.0000000000000D+00
430  4.2900000000000D+00  0.0000000000000D+00  0.0000000000000D+00
431  4.3000000000000D+00  0.0000000000000D+00  0.0000000000000D+00
432  4.3100000000000D+00  0.0000000000000D+00  0.0000000000000D+00
433  4.3200000000000D+00  0.0000000000000D+00  0.0000000000000D+00
434  4.3300000000000D+00  0.0000000000000D+00  0.0000000000000D+00
435  4.3400000000000D+00  0.0000000000000D+00  0.0000000000000D+00
436  4.3500000000000D+00  0.0000000000000D+00  0.0000000000000D+00
437  4.3600000000000D+00  0.0000000000000D+00  0.0000000000000D+00
438  4.3700000000000D+00  0.0000000000000D+00  0.0000000000000D+00
439  4.3800000000000D+00  0.0000000000000D+00  0.0000000000000D+00
440  4.3900000000000D+00  0.0000000000000D+00  0.0000000000000D+00
441  4.4000000000000D+00  0.0000000000000D+00  0.0000000000000D+00
442  4.4100000000000D+00  0.0000000000000D+00  0.0000000000000D+00
443  4.4200000000000D+00  0.0000000000000D+00  0.0000000000000D+00