<?xml version="1.0" encoding="UTF-8" ?>
<psml version="1.1" energy_unit="hartree" length_unit="bohr"
 uuid="67b17a30-539f-11e8-6422-393c9feecfa5"
 xmlns="http://esl.cecam.org/PSML/ns/1.1">
<provenance creator="ONCVPSP-3.3.0+psml-3.3.0-73 (fully-relativistic)"
 date="2018-05-09">
<annotation action="semilocal-pseudopotential-generation"
 action-cont="projectors-generation" />
<input-file name="oncvpsp-input">
<![CDATA[# atsym z nc nv iexc psfile
Te 52 8 3 -116133 both
# n l f
1 0 2.0
2 0 2.0
2 1 6.0
3 0 2.0
3 1 6.0
3 2 10.0
4 0 2.0
4 1 6.0
4 2 10.0
5 0 2.0
5 1 4.0
# lmax
2
# l rc ep ncon nbas qcut
0 2.25 0.0 4 8 4.2
1 1.9 0.0 4 8 6.0
2 1.8 0.0 4 9 8.4
# lloc lpopt rc5 dvloc0
4 5 1.8 0.0
# l nproj debl
0 2 2.5
1 2 1.5
2 2 1.6
# icmod fcfact
3 5 1.43
# epsh1 epsh2 depsh
-12.0 12.0 0.02
# rlmax drl
6.0 0.01
 0
]]>
</input-file>
</provenance>
<pseudo-atom-spec atomic-label="Te" atomic-number="52" z-pseudo="16"
 flavor="Hamann&apos;s oncvpsp" relativity="dirac" spin-dft="no"
 core-corrections="yes">
<annotation pseudo-energy="-93.1946148228" />
<exchange-correlation>
<annotation oncvpsp-xc-code="-116133" oncvpsp-xc-type="libxc-interface" />
<libxc-info number-of-functionals="2">
<functional name="Perdew, Burke &amp; Ernzerhof SOL (GGA)" type="exchange"
 id="116" />
<functional name="Perdew, Burke &amp; Ernzerhof SOL (GGA)" type="correlation"
 id="133" />
</libxc-info>
</exchange-correlation>
<valence-configuration total-valence-charge="16">
<shell n="4" l="d" occupation="10" />
<shell n="5" l="s" occupation="2" />
<shell n="5" l="p" occupation="4" />
</valence-configuration>
</pseudo-atom-spec>
<grid npts="457">
<annotation type="sampled from oncvpsp log grid"
 recipe="r(i:1..N) = r1*exp(a*(i-1)) + r=0; resampled"
 recipe-cont="r1: scale; a: step" scale="0.961538461538E-05"
 step="0.119285708653E-01" delta="0.500000000000E-02" rmax="44.1677972533" />
<grid-data>
  0.000000000000E+00  5.043542968859E-03  1.007408127726E-02  1.511272833334E-02
  2.012218676581E-02  2.524090447309E-02  3.054872670761E-02  3.567301166182E-02
  4.067479879938E-02  4.582796137488E-02  5.102172656014E-02  5.613054395614E-02
  6.175090843111E-02  6.712849932167E-02  7.297439884964E-02  7.838872507068E-02
  8.420476653556E-02  8.937977120117E-02  9.487281811536E-02  1.007034533227E-01
  1.068924241165E-01  1.121163565855E-01  1.175955875068E-01  1.233425935539E-01
  1.293704611469E-01  1.356929162517E-01  1.423243556345E-01  1.475097624955E-01
  1.528840930596E-01  1.584542305217E-01  1.642273088569E-01  1.702107219580E-01
  1.764121331045E-01  1.828394847779E-01  1.895010088340E-01  1.964052370456E-01
  2.035610120299E-01  2.109774985736E-01  2.160713392991E-01  2.212881657152E-01
  2.266309471882E-01  2.321027247771E-01  2.377066129641E-01  2.434458014276E-01
  2.493235568572E-01  2.553432248140E-01  2.615082316339E-01  2.678220863785E-01
  2.742883828320E-01  2.809108015471E-01  2.876931119396E-01  2.946391744343E-01
  3.017529426618E-01  3.090384657095E-01  3.164998904256E-01  3.241414637800E-01
  3.319675352815E-01  3.399825594533E-01  3.481910983688E-01  3.565978242478E-01
  3.652075221164E-01  3.740250925304E-01  3.830555543645E-01  3.923040476690E-01
  4.017758365960E-01  4.114763123947E-01  4.214109964812E-01  4.264679284390E-01
  4.315855435802E-01  4.367645701032E-01  4.420057449444E-01  4.473098138838E-01
  4.526775316504E-01  4.581096620302E-01  4.636069779745E-01  4.691702617102E-01
  4.748003048508E-01  4.804979085090E-01  4.862638834111E-01  4.920990500120E-01
  4.980042386121E-01  5.039802894755E-01  5.100280529492E-01  5.161483895846E-01
  5.223421702596E-01  5.286102763027E-01  5.349535996183E-01  5.413730428138E-01
  5.478695193275E-01  5.544439535595E-01  5.610972810022E-01  5.678304483742E-01
  5.746444137547E-01  5.815401467198E-01  5.885186284804E-01  5.955808520222E-01
  6.027278222464E-01  6.099605561134E-01  6.172800827867E-01  6.246874437802E-01
  6.321836931055E-01  6.397698974228E-01  6.474471361919E-01  6.552165018262E-01
  6.630790998481E-01  6.710360490463E-01  6.790884816348E-01  6.872375434144E-01
  6.954843939354E-01  7.038302066626E-01  7.122761691426E-01  7.208234831723E-01
  7.294733649704E-01  7.382270453500E-01  7.470857698942E-01  7.560507991330E-01
  7.651234087225E-01  7.743048896272E-01  7.835965483027E-01  7.929997068824E-01
  8.025157033650E-01  8.121458918053E-01  8.218916425070E-01  8.317543422171E-01
  8.417353943237E-01  8.518362190556E-01  8.620582536842E-01  8.724029527285E-01
  8.828717881612E-01  8.934662496191E-01  9.041878446146E-01  9.150380987499E-01
  9.260185559349E-01  9.371307786062E-01  9.483763479494E-01  9.597568641248E-01
  9.712739464943E-01  9.829292338523E-01  9.947243846585E-01  1.006661077274E+00
  1.018741010202E+00  1.030965902324E+00  1.043337493152E+00  1.055857543070E+00
  1.068527833587E+00  1.081350167590E+00  1.094326369601E+00  1.107458286036E+00
  1.120747785468E+00  1.134196758894E+00  1.147807120001E+00  1.161580805441E+00
  1.175519775106E+00  1.189626012407E+00  1.203901524556E+00  1.218348342851E+00
  1.232968522965E+00  1.247764145241E+00  1.262737314984E+00  1.277890162763E+00
  1.293224844717E+00  1.308743542853E+00  1.324448465367E+00  1.340341846952E+00
  1.356425949115E+00  1.372703060505E+00  1.389175497231E+00  1.405845603197E+00
  1.422715750436E+00  1.439788339441E+00  1.457065799514E+00  1.474550589108E+00
  1.492245196178E+00  1.510152138532E+00  1.528273964194E+00  1.546613251765E+00
  1.565172610786E+00  1.583954682115E+00  1.602962138301E+00  1.622197683960E+00
  1.641664056168E+00  1.661364024842E+00  1.681300393140E+00  1.701475997858E+00
  1.721893709832E+00  1.742556434350E+00  1.763467111562E+00  1.784628716901E+00
  1.806044261504E+00  1.827716792642E+00  1.849649394153E+00  1.871845186883E+00
  1.894307329126E+00  1.917039017075E+00  1.940043485280E+00  1.963324007103E+00
  1.986883895189E+00  2.010726501931E+00  2.034855219954E+00  2.059273482594E+00
  2.083984764385E+00  2.108992581557E+00  2.134300492536E+00  2.159912098446E+00
  2.185831043628E+00  2.212061016151E+00  2.238605748345E+00  2.265469017325E+00
  2.292654645533E+00  2.320166501280E+00  2.348008499295E+00  2.376184601287E+00
  2.404698816502E+00  2.433555202300E+00  2.462757864728E+00  2.492310959104E+00
  2.522218690614E+00  2.552485314901E+00  2.583115138680E+00  2.614112520344E+00
  2.645481870588E+00  2.677227653035E+00  2.709354384872E+00  2.741866637490E+00
  2.774769037140E+00  2.808066265586E+00  2.841763060773E+00  2.875864217502E+00
  2.910374588112E+00  2.945299083169E+00  2.980642672167E+00  3.016410384233E+00
  3.052607308844E+00  3.089238596550E+00  3.126309459709E+00  3.163825173225E+00
  3.201791075304E+00  3.240212568208E+00  3.279095119026E+00  3.318444260454E+00
  3.358265591580E+00  3.398564778679E+00  3.439347556023E+00  3.480619726695E+00
  3.522387163416E+00  3.564655809377E+00  3.607431679089E+00  3.650720859238E+00
  3.694529509549E+00  3.738863863664E+00  3.783730230028E+00  3.829134992788E+00
  3.875084612701E+00  3.921585628054E+00  3.968644655590E+00  4.016268391458E+00
  4.064463612155E+00  4.113237175501E+00  4.162596021607E+00  4.212547173866E+00
  4.263097739953E+00  4.314254912832E+00  4.366025971786E+00  4.418418283447E+00
  4.471439302849E+00  4.525096574483E+00  4.579397733377E+00  4.634350506177E+00
  4.689962712251E+00  4.746242264798E+00  4.803197171976E+00  4.860835538040E+00
  4.919165564496E+00  4.978195551270E+00  5.037933897885E+00  5.098389104660E+00
  5.159569773916E+00  5.221484611203E+00  5.284142426537E+00  5.347552135656E+00
  5.411722761284E+00  5.476663434419E+00  5.542383395632E+00  5.608891996380E+00
  5.676198700336E+00  5.744313084740E+00  5.813244841757E+00  5.883003779858E+00
  5.953599825217E+00  6.025043023119E+00  6.097343539397E+00  6.170511661869E+00
  6.244557801812E+00  6.319492495433E+00  6.395326405379E+00  6.472070322243E+00
  6.549735166110E+00  6.628331988103E+00  6.707871971961E+00  6.788366435624E+00
  6.869826832852E+00  6.952264754846E+00  7.035691931904E+00  7.120120235087E+00
  7.205561677908E+00  7.292028418043E+00  7.379532759059E+00  7.468087152168E+00
  7.557704197994E+00  7.648396648370E+00  7.740177408151E+00  7.833059537048E+00
  7.927056251493E+00  8.022180926511E+00  8.118447097629E+00  8.215868462801E+00
  8.314458884354E+00  8.414232390966E+00  8.515203179658E+00  8.617385617814E+00
  8.720794245228E+00  8.825443776170E+00  8.931349101484E+00  9.038525290702E+00
  9.146987594191E+00  9.256751445321E+00  9.367832462665E+00  9.480246452217E+00
  9.594009409643E+00  9.709137522559E+00  9.825647172830E+00  9.943554938904E+00
  1.006287759817E+01  1.018363212935E+01  1.030583571490E+01  1.042950574348E+01
  1.055465981240E+01  1.068131573015E+01  1.080949151891E+01  1.093920541714E+01
  1.107047588214E+01  1.120332159273E+01  1.133776145184E+01  1.147381458927E+01
  1.161150036434E+01  1.175083836871E+01  1.189184842913E+01  1.203455061028E+01
  1.217896521761E+01  1.232511280022E+01  1.247301415382E+01  1.262269032367E+01
  1.277416260755E+01  1.292745255884E+01  1.308258198955E+01  1.323957297342E+01
  1.339844784910E+01  1.355922922329E+01  1.372193997397E+01  1.388660325366E+01
  1.405324249270E+01  1.422188140261E+01  1.439254397945E+01  1.456525450720E+01
  1.474003756129E+01  1.491691801202E+01  1.509592102817E+01  1.527707208050E+01
  1.546039694547E+01  1.564592170882E+01  1.583367276932E+01  1.602367684255E+01
  1.621596096466E+01  1.641055249624E+01  1.660747912619E+01  1.680676887571E+01
  1.700845010222E+01  1.721255150344E+01  1.741910212148E+01  1.762813134694E+01
  1.783966892311E+01  1.805374495018E+01  1.827038988959E+01  1.848963456826E+01
  1.871151018308E+01  1.893604830528E+01  1.916328088494E+01  1.939324025556E+01
  1.962595913863E+01  1.986147064829E+01  2.009980829607E+01  2.034100599562E+01
  2.058509806757E+01  2.083211924438E+01  2.108210467531E+01  2.133508993142E+01
  2.159111101059E+01  2.185020434272E+01  2.211240679483E+01  2.237775567637E+01
  2.264628874449E+01  2.291804420942E+01  2.319306073993E+01  2.347137746881E+01
  2.375303399844E+01  2.403807040642E+01  2.432652725130E+01  2.461844557831E+01
  2.491386692525E+01  2.521283332836E+01  2.551538732830E+01  2.582157197624E+01
  2.613143083995E+01  2.644500801003E+01  2.676234810615E+01  2.708349628342E+01
  2.740849823883E+01  2.773740021769E+01  2.807024902030E+01  2.840709200855E+01
  2.874797711265E+01  2.909295283800E+01  2.944206827206E+01  2.979537309132E+01
  3.015291756842E+01  3.051475257924E+01  3.088092961019E+01  3.125150076551E+01
  3.162651877470E+01  3.200603700000E+01  3.239010944400E+01  3.277879075732E+01
  3.317213624641E+01  3.357020188137E+01  3.397304430394E+01  3.438072083559E+01
  3.479328948562E+01  3.521080895945E+01  3.563333866696E+01  3.606093873096E+01
  3.649366999573E+01  3.693159403568E+01  3.737477316411E+01  3.782327044208E+01
  3.827714968739E+01  3.873647548363E+01  3.920131318944E+01  3.967172894771E+01
  4.014778969508E+01  4.062956317142E+01  4.111711792948E+01  4.161052334464E+01
  4.210984962477E+01  4.261516782027E+01  4.312654983411E+01  4.364406843212E+01
  4.416779725331E+01
</grid-data>
</grid>
<valence-charge total-charge="16" is-unscreening-charge="yes"
 rescaled-to-z-pseudo="no">
<radfunc>
<data npts="457">
  1.091687744731E-03  1.096499884033E-03  1.114710123681E-03  1.157847623011E-03
  1.244316805537E-03  1.404885542960E-03  1.686630631645E-03  2.115249646026E-03
  2.732156270257E-03  3.631736405330E-03  4.877859689351E-03  6.510772489270E-03
  8.870447220882E-03  1.178494937647E-02  1.581242983713E-02  2.046925233091E-02
  2.661437962492E-02  3.320981062171E-02  4.151603880156E-02  5.197270362581E-02
  6.512979347595E-02  7.805591776561E-02  9.357448484984E-02  1.121949911658E-01
  1.345231668602E-01  1.612778288946E-01  1.933102424600E-01  2.213966332031E-01
  2.535031893300E-01  2.901825466162E-01  3.320577372457E-01  3.798298216541E-01
  4.342860195941E-01  4.963082833133E-01  5.668822231623E-01  6.471062550674E-01
  7.382007886830E-01  8.415172131891E-01  9.179150091125E-01  1.000882070927E+00
  1.090926057359E+00  1.188585226083E+00  1.294428922005E+00  1.409057818124E+00
  1.533103856577E+00  1.667229831010E+00  1.812128544618E+00  1.968521471073E+00
  2.137156838286E+00  2.318807047550E+00  2.514265333383E+00  2.724341562391E+00
  2.949857063153E+00  3.191638373621E+00  3.450509788383E+00  3.727284585737E+00
  4.022754814407E+00  4.337679522607E+00  4.672771318634E+00  5.028681163166E+00
  5.405981309738E+00  5.805146332564E+00  6.226532210839E+00  6.670353477163E+00
  7.136658485621E+00  7.625302913619E+00  8.135921681528E+00  8.399289779565E+00
  8.667899556459E+00  8.941630040729E+00  9.220340801482E+00  9.503870981927E+00
  9.792038339485E+00  1.008463829838E+01  1.038144302116E+01  1.068220050613E+01
  1.098663371837E+01  1.129443976236E+01  1.160528910523E+01  1.191882485971E+01
  1.223466213695E+01  1.255238747964E+01  1.287155838635E+01  1.319170293887E+01
  1.351231954438E+01  1.383287680492E+01  1.415281352702E+01  1.447153888438E+01
  1.478843274694E+01  1.510284618962E+01  1.541410219388E+01  1.572149655535E+01
  1.602429901012E+01  1.632175459198E+01  1.661308523223E+01  1.689749161267E+01
  1.717415528143E+01  1.744224103984E+01  1.770089960710E+01  1.794927056757E+01
  1.818648560347E+01  1.841167201339E+01  1.862395651442E+01  1.882246932260E+01
  1.900634850345E+01  1.917474458059E+01  1.932682538692E+01  1.946178113886E+01
  1.957882970974E+01  1.967722207436E+01  1.975624789221E+01  1.981524119199E+01
  1.985358611594E+01  1.987072267762E+01  1.986615248239E+01  1.983944435587E+01
  1.979023982147E+01  1.971825836482E+01  1.962330241979E+01  1.950526200849E+01
  1.936411896602E+01  1.919995068001E+01  1.901293327499E+01  1.880334417317E+01
  1.857156396527E+01  1.831807752901E+01  1.804347433767E+01  1.774844790742E+01
  1.743379433991E+01  1.710040992561E+01  1.674928778388E+01  1.638151352719E+01
  1.599825994995E+01  1.560078075594E+01  1.519040335309E+01  1.476852075930E+01
  1.433658267850E+01  1.389608582138E+01  1.344856356050E+01  1.299557502332E+01
  1.253869374048E+01  1.207949597790E+01  1.161954889148E+01  1.116039865098E+01
  1.070355868473E+01  1.025049819962E+01  9.802631130434E+00  9.361305668875E+00
  8.927794516580E+00  8.503285996255E+00  8.088876142784E+00  7.685561880693E+00
  7.294235376566E+00  6.915679635153E+00  6.550565386497E+00  6.199449288891E+00
  5.862773449441E+00  5.540866241133E+00  5.233944372982E+00  4.942116148866E+00
  4.665385831380E+00  4.403659010064E+00  4.156748859027E+00  3.924383157649E+00
  3.706211939897E+00  3.501815633015E+00  3.310713544895E+00  3.132372561317E+00
  2.966215919183E+00  2.811631929688E+00  2.667982535586E+00  2.534611598980E+00
  2.410852829712E+00  2.296037278976E+00  2.189500337401E+00  2.090588190999E+00
  1.998663701197E+00  1.913111686129E+00  1.833343588862E+00  1.758801523940E+00
  1.688961696445E+00  1.623337187995E+00  1.561480102287E+00  1.502983060041E+00
  1.447480030884E+00  1.394646489403E+00  1.344198886040E+00  1.295893432077E+00
  1.249524212633E+00  1.204919574505E+00  1.161933954530E+00  1.120438706546E+00
  1.080320832583E+00  1.041484179787E+00  1.003848053192E+00  9.673446085908E-01
  9.319149526887E-01  8.975077464934E-01  8.640789188894E-01  8.315905283275E-01
  8.000099434235E-01  7.693089960646E-01  7.394631757168E-01  7.104508746592E-01
  6.822526974552E-01  6.548508466515E-01  6.282285948172E-01  6.023698507553E-01
  5.772589354180E-01  5.528808996706E-01  5.292221193311E-01  5.062702092086E-01
  4.840136645680E-01  4.624417400220E-01  4.415442674322E-01  4.213115044687E-01
  4.017339994192E-01  3.828024725624E-01  3.645077132405E-01  3.468404917322E-01
  3.297914849226E-01  3.133512149684E-01  2.975099998669E-01  2.822579150500E-01
  2.675847650551E-01  2.534800643510E-01  2.399330264192E-01  2.269325602197E-01
  2.144672731995E-01  2.025254800377E-01  1.910952163592E-01  1.801642566895E-01
  1.697201359647E-01  1.597501739558E-01  1.502415020104E-01  1.411810915608E-01
  1.325557838930E-01  1.243523207118E-01  1.165573750973E-01  1.091575824680E-01
  1.021395712278E-01  9.548999281284E-02  8.919555088367E-02  8.324302945782E-02
  7.761931981066E-02  7.231144600597E-02  6.730658895069E-02  6.259210889774E-02
  5.815556634776E-02  5.398474132454E-02  5.006765102004E-02  4.639256582200E-02
  4.294802375219E-02  3.972284335361E-02  3.670613507335E-02  3.388731119231E-02
  3.125609435520E-02  2.880252475439E-02  2.651696601924E-02  2.439010985978E-02
  2.241297951034E-02  2.057693201520E-02  1.887365939562E-02  1.729518873554E-02
  1.583388122270E-02  1.448243018212E-02  1.323385814090E-02  1.208151296628E-02
  1.101906312268E-02  1.004049209816E-02  9.140092055495E-03  8.312456768122E-03
  7.552473905647E-03  6.855316737676E-03  6.216435327844E-03  5.631547292100E-03
  5.096628196427E-03  4.607901669146E-03  4.161829301865E-03  3.755100411012E-03
  3.384621728806E-03  3.047507088720E-03  2.741067165904E-03  2.462799328069E-03
  2.210377646873E-03  1.981643114252E-03  1.774594102382E-03  1.587377100240E-03
  1.418277754123E-03  1.265712234070E-03  1.128218943015E-03  1.004450580687E-03
  8.931665698501E-04  7.932258484799E-04  7.035800278733E-04  6.232669135595E-04
  5.514043831790E-04  4.871846132307E-04  4.298686447407E-04  3.787812764464E-04
  3.333062730049E-04  2.928818749649E-04  2.569965967795E-04  2.251852989167E-04
  1.970255201256E-04  1.721340560893E-04  1.501637710057E-04  1.308006290518E-04
  1.137609331777E-04  9.878875920565E-05  8.565357377260E-05  7.414802521585E-05
  6.408589705954E-05  5.530021429841E-05  4.764149318986E-05  4.097612575134E-05
  3.518489061654E-05  3.016158232959E-05  2.581175155521E-05  2.205154905373E-05
  1.880666661932E-05  1.601136850765E-05  1.360760719095E-05  1.154421757489E-05
  9.776184097046E-06  8.263975401644E-06  6.972941552377E-06  5.872769005257E-06
  4.936988817660E-06  4.142533818421E-06  3.469340707438E-06  2.899993291530E-06
  2.419403296206E-06  2.014525420165E-06  1.674103520283E-06  1.388445029112E-06
  1.149220914011E-06  9.492886864358E-07  7.825361612357E-07  6.437438486202E-07
  5.284640354591E-07  4.329147775474E-07  3.538871802238E-07  2.886644912170E-07
  2.349516668197E-07  1.908142005298E-07  1.546251223150E-07  1.250191868548E-07
  1.008533707756E-07  8.117289232127E-08  6.518205245545E-08  5.221927445262E-08
  4.173579000084E-08  3.327748413662E-08  2.646946937978E-08  2.100301166494E-08
  1.662447749970E-08  1.312601363355E-08  1.033770780222E-08  8.121012208783E-09
  6.363240689317E-09  4.972976341697E-09  3.876249104609E-09  3.013362674018E-09
  2.336267526871E-09  1.806391957008E-09  1.392856164530E-09  1.071005804798E-09
  8.212112045405E-10  6.278868782550E-10  4.786931982745E-10  3.638882392894E-10
  2.758030693436E-10  2.084182162127E-10  1.570228085651E-10  1.179410708462E-10
  8.831352332459E-11  6.592247775242E-11  4.905328879062E-11  3.638437750417E-11
  2.690033414684E-11  1.982347476061E-11  1.456010558943E-11  1.065847155604E-11
  7.775956163027E-12  5.653582306111E-12  4.096255363027E-12  2.957507329104E-12
  2.127756958330E-12  1.525306909980E-12  1.089464018693E-12  7.753006501274E-13
  5.496799961995E-13  3.882513059264E-13  2.731867048953E-13  1.914829108577E-13
  1.336916369853E-13  9.297408199335E-14  6.439948825735E-14  4.442679210749E-14
  3.052308436780E-14  2.088389189030E-14  1.422893453150E-14  9.653601094025E-15
  6.521389857146E-15  4.386340814378E-15  2.937333407915E-15  1.958257348332E-15
  1.299656649532E-15  8.586303995633E-16  5.646492630725E-16  3.695914958416E-16
  2.407750055910E-16  1.561069649798E-16  1.007232014667E-16  6.467072508924E-17
  4.131723014196E-17  2.626478814844E-17  1.661152448322E-17  1.045228610496E-17
  6.542628905552E-18  4.073850978680E-18  2.523144602841E-18  1.554301381440E-18
  9.522609393000E-19  5.801970242387E-19  3.515317048749E-19  2.117839932561E-19
  1.223536723080E-19  7.295256591371E-20  4.324142753197E-20  2.547777729085E-20
  0.000000000000E+00  0.000000000000E+00  0.000000000000E+00  0.000000000000E+00
  0.000000000000E+00  0.000000000000E+00  0.000000000000E+00  0.000000000000E+00
  0.000000000000E+00  0.000000000000E+00  0.000000000000E+00  0.000000000000E+00
  0.000000000000E+00  0.000000000000E+00  0.000000000000E+00  0.000000000000E+00
  0.000000000000E+00  0.000000000000E+00  0.000000000000E+00  0.000000000000E+00
  0.000000000000E+00  0.000000000000E+00  0.000000000000E+00  0.000000000000E+00
  0.000000000000E+00
</data>
</radfunc>
</valence-charge>
<pseudocore-charge matching-radius="0.812145891805"
 number-of-continuous-derivatives="4">
<annotation model-charge-form="Teter function with specified parameters" />
<radfunc>
<data npts="290">
  9.715252516392E+01  9.714673637342E+01  9.712943159481E+01  9.710056081854E+01
  9.706041957349E+01  9.700763634374E+01  9.694036186823E+01  9.686332270083E+01
  9.677669517213E+01  9.667566673764E+01  9.656178127550E+01  9.643798460167E+01
  9.628835394108E+01  9.613206225492E+01  9.594767013215E+01  9.576349655000E+01
  9.555139102349E+01  9.535031331371E+01  9.512423542282E+01  9.487011667499E+01
  9.458456474824E+01  9.433096533454E+01  9.405270845134E+01  9.374747749099E+01
  9.341275516119E+01  9.304580971966E+01  9.264368108083E+01  9.231707877521E+01
  9.196744523410E+01  9.159325186226E+01  9.119288329509E+01  9.076463480678E+01
  9.030671005909E+01  8.981721928455E+01  8.929417801239E+01  8.873550646157E+01
  8.813902974297E+01  8.750247903217E+01  8.705468658509E+01  8.658731491132E+01
  8.609962597231E+01  8.559086579259E+01  8.506026543589E+01  8.450704216716E+01
  8.393040081822E+01  8.332953537565E+01  8.270363081068E+01  8.205186517178E+01
  8.137341196136E+01  8.066744281913E+01  7.993313053507E+01  7.916965241571E+01
  7.837619402761E+01  7.755195334227E+01  7.669614530634E+01  7.580800686070E+01
  7.488680243099E+01  7.393182991076E+01  7.294242715673E+01  7.191797901285E+01
  7.085792487688E+01  6.976176681879E+01  6.862907825575E+01  6.745951318197E+01
  6.625281594488E+01  6.500883155055E+01  6.372751647138E+01  6.307287956692E+01
  6.240894991812E+01  6.173575852151E+01  6.105334552504E+01  6.036176061111E+01
  5.966106338302E+01  5.895132375412E+01  5.823262233874E+01  5.750505084381E+01
  5.676871246040E+01  5.602372225372E+01  5.527020755057E+01  5.450830832276E+01
  5.373817756527E+01  5.295998166741E+01  5.217390077550E+01  5.138012914534E+01
  5.057887548258E+01  4.977036326908E+01  4.895483107330E+01  4.813253284244E+01
  4.730373817419E+01  4.646873256567E+01  4.562781763719E+01  4.478131132814E+01
  4.392954806255E+01  4.307287888142E+01  4.221167153909E+01  4.134631056071E+01
  4.047719725796E+01  3.960474969982E+01  3.872940263552E+01  3.785160736650E+01
  3.697183156422E+01  3.609055903085E+01  3.520828939962E+01  3.432553777192E+01
  3.344283428804E+01  3.256072362881E+01  3.167976444517E+01  3.080052871324E+01
  2.992360101230E+01  2.904957772348E+01  2.817906614709E+01  2.731268353699E+01
  2.645105605036E+01  2.559481761212E+01  2.474460869296E+01  2.390107500115E+01
  2.306486608805E+01  2.223663386838E+01  2.141703105639E+01  2.060670952014E+01
  1.980631855629E+01  1.901650308899E+01  1.823790179673E+01  1.747114517229E+01
  1.671685352116E+01  1.597563490529E+01  1.524808303939E+01  1.453477514816E+01
  1.383626979368E+01  1.315310468307E+01  1.248579446752E+01  1.183482854459E+01
  1.120066887671E+01  1.058374783941E+01  9.984466113942E+00  9.403190639362E+00
  8.840252639993E+00  8.295945744750E+00  7.770524215192E+00  7.264201299567E+00
  6.777147730283E+00  6.309490382316E+00  5.861311109889E+00  5.432645778471E+00
  5.023483508597E+00  4.633766147268E+00  4.263387981713E+00  3.912195709061E+00
  3.579988674001E+00  3.266519384781E+00  2.971494315893E+00  2.694575003534E+00
  2.435379437480E+00  2.193483750165E+00  1.968424200949E+00  1.759699450229E+00
  1.566773114818E+00  1.389076592507E+00  1.226012140134E+00  1.076956185873E+00
  9.412628528273E-01  8.182676674321E-01  7.072914227418E-01  6.076441634140E-01
  5.186292562177E-01  4.395475072433E-01  3.697012847512E-01  3.083986048494E-01
  2.549571359976E-01  2.087080777748E-01  1.689998694720E-01  1.352016849352E-01
  1.067066717327E-01  8.293489516704E-02  6.333595092343E-02  4.739121421898E-02
  3.461569817320E-02  2.455949970393E-02  1.680881749280E-02  1.098653336445E-02
  6.752355664179E-03  3.802530758364E-03  1.869136459552E-03  7.189788148794E-04
  1.521211005687E-04  8.083583655387E-08  1.237369632621E-04  4.109948392218E-04
  7.742611481804E-04  1.147784127332E-03  1.484916418435E-03  1.755358340627E-03
  1.942438331642E-03  2.040484712625E-03  2.052338823789E-03  1.987054040436E-03
  1.857818354589E-03  1.680130295971E-03  1.470249218858E-03  1.243931695412E-03
  1.015456264454E-03  7.969294437123E-04  5.978570886215E-04  4.249572290095E-04
  2.821837679619E-04  1.709251721259E-04  9.033874555394E-05  3.777940854093E-05
  9.282157743493E-06  5.952511726995E-08  4.979240678128E-06  1.899269939901E-05
  3.749140855059E-05  5.657594854157E-05  7.322966716686E-05  8.539686999351E-05
  9.197220163817E-05  9.271380701676E-05  8.809736299521E-05  7.913092396023E-05
  6.715159671472E-05  5.362435401616E-05  3.996095477728E-05  2.737323633881E-05
  1.677036495837E-05  8.704438603484E-06  3.363633786745E-06  6.073702834930E-07
  3.417320326181E-08  1.070379863007E-06  3.066771591213E-06  5.390650708712E-06
  7.502707068414E-06  9.010949266548E-06  9.697612238223E-06  9.518818248539E-06
  8.580366883135E-06  7.095910701197E-06  5.335589821457E-06  3.573755335078E-06
  2.043692063186E-06  9.054227326202E-07  2.300646164536E-07  1.253749601077E-09
  0.000000000000E+00  0.000000000000E+00  0.000000000000E+00  0.000000000000E+00
  0.000000000000E+00  0.000000000000E+00  0.000000000000E+00  0.000000000000E+00
  0.000000000000E+00  0.000000000000E+00  0.000000000000E+00  0.000000000000E+00
  0.000000000000E+00  0.000000000000E+00  0.000000000000E+00  0.000000000000E+00
  0.000000000000E+00  0.000000000000E+00  0.000000000000E+00  0.000000000000E+00
  0.000000000000E+00  0.000000000000E+00  0.000000000000E+00  0.000000000000E+00
  0.000000000000E+00  0.000000000000E+00  0.000000000000E+00  0.000000000000E+00
  0.000000000000E+00  0.000000000000E+00  0.000000000000E+00  0.000000000000E+00
  0.000000000000E+00  0.000000000000E+00  0.000000000000E+00  0.000000000000E+00
  0.000000000000E+00  0.000000000000E+00  0.000000000000E+00  0.000000000000E+00
  0.000000000000E+00  0.000000000000E+00  0.000000000000E+00  0.000000000000E+00
  0.000000000000E+00  0.000000000000E+00
</data>
</radfunc>
</pseudocore-charge>
<semilocal-potentials set="scalar_relativistic">
<slps n="5" l="s" rc="2.26546901733">
<radfunc>
<data npts="290">
  6.530110652886E+01  6.524828533005E+01  6.509078118280E+01  6.482932773508E+01
  6.446852987183E+01  6.399885711979E+01  6.340793269863E+01  6.274160511868E+01
  6.200524503702E+01  6.116324454287E+01  6.023506800560E+01  5.925046325466E+01
  5.809293013629E+01  5.692028003832E+01  5.558235679159E+01  5.429278858047E+01
  5.286241213634E+01  5.155757299879E+01  5.014656070586E+01  4.862713308941E+01
  4.699834009717E+01  4.561688432085E+01  4.416682988999E+01  4.265000221161E+01
  4.106902601213E+01  3.942735138433E+01  3.772926058283E+01  3.642170724354E+01
  3.508771371930E+01  3.372995440625E+01  3.235131826288E+01  3.095488637196E+01
  2.954390572164E+01  2.812175963489E+01  2.669193539300E+01  2.525798970030E+01
  2.382351271812E+01  2.239209145153E+01  2.144126273993E+01  2.049440425254E+01
  1.955253058644E+01  1.861663267937E+01  1.768767374803E+01  1.676658550070E+01
  1.585426465672E+01  1.495156980076E+01  1.405931859524E+01  1.317828536905E+01
  1.230919909613E+01  1.145274177174E+01  1.060954719004E+01  9.780200121421E+00
  8.965235883599E+00  8.165140296589E+00  7.380350007716E+00  6.611253169617E+00
  5.858190451334E+00  5.121456360206E+00  4.401300850340E+00  3.697931191991E+00
  3.011514075108E+00  2.342177919624E+00  1.690015364742E+00  1.055085909387E+00
  4.374186761465E-01 -1.629847286938E-01 -7.461472860212E-01 -1.031276420608E+00
 -1.312113592313E+00 -1.588667262882E+00 -1.860946871907E+00 -2.128962744416E+00
 -2.392725999224E+00 -2.652248458260E+00 -2.907542557073E+00 -3.158621256736E+00
 -3.405497957356E+00 -3.648186413411E+00 -3.886700651137E+00 -4.121054888206E+00
 -4.351263455918E+00 -4.577340724166E+00 -4.799301029425E+00 -5.017158606038E+00
 -5.230927521070E+00 -5.440621613026E+00 -5.646254434742E+00 -5.847839200761E+00
 -6.045388739539E+00 -6.238915450818E+00 -6.428431268551E+00 -6.613947629734E+00
 -6.795475449560E+00 -6.973025103284E+00 -7.146606415210E+00 -7.316228655228E+00
 -7.481900543286E+00 -7.643630262224E+00 -7.801425479342E+00 -7.955293377060E+00
 -8.105240692996E+00 -8.251273769726E+00 -8.393398614437E+00 -8.531620968605E+00
 -8.665946387731E+00 -8.796380331075E+00 -8.922928261191E+00 -9.045595752964E+00
 -9.164388611662E+00 -9.279312999420E+00 -9.390375569375E+00 -9.497583606553E+00
 -9.600945174427E+00 -9.700469265977E+00 -9.796165957906E+00 -9.888046566616E+00
 -9.976123804450E+00 -1.006041193466E+01 -1.014092692354E+01 -1.021768658825E+01
 -1.029071073880E+01 -1.036002131273E+01 -1.042564250137E+01 -1.048760086626E+01
 -1.054592544481E+01 -1.060064784413E+01 -1.065180232228E+01 -1.069942585599E+01
 -1.074355819423E+01 -1.078424189680E+01 -1.082152235705E+01 -1.085544780788E+01
 -1.088606930979E+01 -1.091344071958E+01 -1.093761863810E+01 -1.095866233486E+01
 -1.097663364713E+01 -1.099159685065E+01 -1.100361849873E+01 -1.101276722590E+01
 -1.101911351254E+01 -1.102272940617E+01 -1.102368819572E+01 -1.102206403541E+01
 -1.101793151594E+01 -1.101136518251E+01 -1.100243900161E+01 -1.099122578239E+01
 -1.097779656294E+01 -1.096221997795E+01 -1.094456163081E+01 -1.092488350050E+01
 -1.090324342020E+01 -1.087969466920E+01 -1.085428572006E+01 -1.082706017737E+01