<?xml version="1.0" encoding="UTF-8" ?>
<psml version="1.1" energy_unit="hartree" length_unit="bohr"
 uuid="63d73b50-53a1-11e8-5046-02209366338e"
 xmlns="http://esl.cecam.org/PSML/ns/1.1">
<provenance creator="ONCVPSP-3.3.0+psml-3.3.0-73 (fully-relativistic)"
 date="2018-05-09">
<annotation action="semilocal-pseudopotential-generation"
 action-cont="projectors-generation" />
<input-file name="oncvpsp-input">
<![CDATA[# atsym z nc nv iexc psfile
Te 52 6 5 -116133 both
# n l f
1 0 2.0
2 0 2.0
2 1 6.0
3 0 2.0
3 1 6.0
3 2 10.0
4 0 2.0
4 1 6.0
4 2 10.0
5 0 2.0
5 1 4.0
# lmax
2
# l rc ep ncon nbas qcut
0 1.3 0.0 4 8 9.4
1 1.3 0.0 4 8 9.6
2 1.5 0.0 4 8 10.0
# lloc lpopt rc5 dvloc0
4 5 1.3 0.0
# l nproj debl
0 2 3.0
1 2 3.5
2 2 1.6
# icmod fcfact rcfact
3 5.0 1.5
# epsh1 epsh2 depsh
-12.0 12.0 0.02
# rlmax drl
6.0 0.01
 0
]]>
</input-file>
</provenance>
<pseudo-atom-spec atomic-label="Te" atomic-number="52" z-pseudo="24"
 flavor="Hamann&apos;s oncvpsp" relativity="dirac" spin-dft="no"
 core-corrections="yes">
<annotation pseudo-energy="-268.228174823" />
<exchange-correlation>
<annotation oncvpsp-xc-code="-116133" oncvpsp-xc-type="libxc-interface" />
<libxc-info number-of-functionals="2">
<functional name="Perdew, Burke &amp; Ernzerhof SOL (GGA)" type="exchange"
 id="116" />
<functional name="Perdew, Burke &amp; Ernzerhof SOL (GGA)" type="correlation"
 id="133" />
</libxc-info>
</exchange-correlation>
<valence-configuration total-valence-charge="24">
<shell n="4" l="s" occupation="2" />
<shell n="4" l="p" occupation="6" />
<shell n="4" l="d" occupation="10" />
<shell n="5" l="s" occupation="2" />
<shell n="5" l="p" occupation="4" />
</valence-configuration>
</pseudo-atom-spec>
<grid npts="457">
<annotation type="sampled from oncvpsp log grid"
 recipe="r(i:1..N) = r1*exp(a*(i-1)) + r=0; resampled"
 recipe-cont="r1: scale; a: step" scale="0.961538461538E-05"
 step="0.119285708653E-01" delta="0.500000000000E-02" rmax="44.1677972533" />
<grid-data>
  0.000000000000E+00  5.043542968859E-03  1.007408127726E-02  1.511272833334E-02
  2.012218676581E-02  2.524090447309E-02  3.054872670761E-02  3.567301166182E-02
  4.067479879938E-02  4.582796137488E-02  5.102172656014E-02  5.613054395614E-02
  6.175090843111E-02  6.712849932167E-02  7.297439884964E-02  7.838872507068E-02
  8.420476653556E-02  8.937977120117E-02  9.487281811536E-02  1.007034533227E-01
  1.068924241165E-01  1.121163565855E-01  1.175955875068E-01  1.233425935539E-01
  1.293704611469E-01  1.356929162517E-01  1.423243556345E-01  1.475097624955E-01
  1.528840930596E-01  1.584542305217E-01  1.642273088569E-01  1.702107219580E-01
  1.764121331045E-01  1.828394847779E-01  1.895010088340E-01  1.964052370456E-01
  2.035610120299E-01  2.109774985736E-01  2.160713392991E-01  2.212881657152E-01
  2.266309471882E-01  2.321027247771E-01  2.377066129641E-01  2.434458014276E-01
  2.493235568572E-01  2.553432248140E-01  2.615082316339E-01  2.678220863785E-01
  2.742883828320E-01  2.809108015471E-01  2.876931119396E-01  2.946391744343E-01
  3.017529426618E-01  3.090384657095E-01  3.164998904256E-01  3.241414637800E-01
  3.319675352815E-01  3.399825594533E-01  3.481910983688E-01  3.565978242478E-01
  3.652075221164E-01  3.740250925304E-01  3.830555543645E-01  3.923040476690E-01
  4.017758365960E-01  4.114763123947E-01  4.214109964812E-01  4.264679284390E-01
  4.315855435802E-01  4.367645701032E-01  4.420057449444E-01  4.473098138838E-01
  4.526775316504E-01  4.581096620302E-01  4.636069779745E-01  4.691702617102E-01
  4.748003048508E-01  4.804979085090E-01  4.862638834111E-01  4.920990500120E-01
  4.980042386121E-01  5.039802894755E-01  5.100280529492E-01  5.161483895846E-01
  5.223421702596E-01  5.286102763027E-01  5.349535996183E-01  5.413730428138E-01
  5.478695193275E-01  5.544439535595E-01  5.610972810022E-01  5.678304483742E-01
  5.746444137547E-01  5.815401467198E-01  5.885186284804E-01  5.955808520222E-01
  6.027278222464E-01  6.099605561134E-01  6.172800827867E-01  6.246874437802E-01
  6.321836931055E-01  6.397698974228E-01  6.474471361919E-01  6.552165018262E-01
  6.630790998481E-01  6.710360490463E-01  6.790884816348E-01  6.872375434144E-01
  6.954843939354E-01  7.038302066626E-01  7.122761691426E-01  7.208234831723E-01
  7.294733649704E-01  7.382270453500E-01  7.470857698942E-01  7.560507991330E-01
  7.651234087225E-01  7.743048896272E-01  7.835965483027E-01  7.929997068824E-01
  8.025157033650E-01  8.121458918053E-01  8.218916425070E-01  8.317543422171E-01
  8.417353943237E-01  8.518362190556E-01  8.620582536842E-01  8.724029527285E-01
  8.828717881612E-01  8.934662496191E-01  9.041878446146E-01  9.150380987499E-01
  9.260185559349E-01  9.371307786062E-01  9.483763479494E-01  9.597568641248E-01
  9.712739464943E-01  9.829292338523E-01  9.947243846585E-01  1.006661077274E+00
  1.018741010202E+00  1.030965902324E+00  1.043337493152E+00  1.055857543070E+00
  1.068527833587E+00  1.081350167590E+00  1.094326369601E+00  1.107458286036E+00
  1.120747785468E+00  1.134196758894E+00  1.147807120001E+00  1.161580805441E+00
  1.175519775106E+00  1.189626012407E+00  1.203901524556E+00  1.218348342851E+00
  1.232968522965E+00  1.247764145241E+00  1.262737314984E+00  1.277890162763E+00
  1.293224844717E+00  1.308743542853E+00  1.324448465367E+00  1.340341846952E+00
  1.356425949115E+00  1.372703060505E+00  1.389175497231E+00  1.405845603197E+00
  1.422715750436E+00  1.439788339441E+00  1.457065799514E+00  1.474550589108E+00
  1.492245196178E+00  1.510152138532E+00  1.528273964194E+00  1.546613251765E+00
  1.565172610786E+00  1.583954682115E+00  1.602962138301E+00  1.622197683960E+00
  1.641664056168E+00  1.661364024842E+00  1.681300393140E+00  1.701475997858E+00
  1.721893709832E+00  1.742556434350E+00  1.763467111562E+00  1.784628716901E+00
  1.806044261504E+00  1.827716792642E+00  1.849649394153E+00  1.871845186883E+00
  1.894307329126E+00  1.917039017075E+00  1.940043485280E+00  1.963324007103E+00
  1.986883895189E+00  2.010726501931E+00  2.034855219954E+00  2.059273482594E+00
  2.083984764385E+00  2.108992581557E+00  2.134300492536E+00  2.159912098446E+00
  2.185831043628E+00  2.212061016151E+00  2.238605748345E+00  2.265469017325E+00
  2.292654645533E+00  2.320166501280E+00  2.348008499295E+00  2.376184601287E+00
  2.404698816502E+00  2.433555202300E+00  2.462757864728E+00  2.492310959104E+00
  2.522218690614E+00  2.552485314901E+00  2.583115138680E+00  2.614112520344E+00
  2.645481870588E+00  2.677227653035E+00  2.709354384872E+00  2.741866637490E+00
  2.774769037140E+00  2.808066265586E+00  2.841763060773E+00  2.875864217502E+00
  2.910374588112E+00  2.945299083169E+00  2.980642672167E+00  3.016410384233E+00
  3.052607308844E+00  3.089238596550E+00  3.126309459709E+00  3.163825173225E+00
  3.201791075304E+00  3.240212568208E+00  3.279095119026E+00  3.318444260454E+00
  3.358265591580E+00  3.398564778679E+00  3.439347556023E+00  3.480619726695E+00
  3.522387163416E+00  3.564655809377E+00  3.607431679089E+00  3.650720859238E+00
  3.694529509549E+00  3.738863863664E+00  3.783730230028E+00  3.829134992788E+00
  3.875084612701E+00  3.921585628054E+00  3.968644655590E+00  4.016268391458E+00
  4.064463612155E+00  4.113237175501E+00  4.162596021607E+00  4.212547173866E+00
  4.263097739953E+00  4.314254912832E+00  4.366025971786E+00  4.418418283447E+00
  4.471439302849E+00  4.525096574483E+00  4.579397733377E+00  4.634350506177E+00
  4.689962712251E+00  4.746242264798E+00  4.803197171976E+00  4.860835538040E+00
  4.919165564496E+00  4.978195551270E+00  5.037933897885E+00  5.098389104660E+00
  5.159569773916E+00  5.221484611203E+00  5.284142426537E+00  5.347552135656E+00
  5.411722761284E+00  5.476663434419E+00  5.542383395632E+00  5.608891996380E+00
  5.676198700336E+00  5.744313084740E+00  5.813244841757E+00  5.883003779858E+00
  5.953599825217E+00  6.025043023119E+00  6.097343539397E+00  6.170511661869E+00
  6.244557801812E+00  6.319492495433E+00  6.395326405379E+00  6.472070322243E+00
  6.549735166110E+00  6.628331988103E+00  6.707871971961E+00  6.788366435624E+00
  6.869826832852E+00  6.952264754846E+00  7.035691931904E+00  7.120120235087E+00
  7.205561677908E+00  7.292028418043E+00  7.379532759059E+00  7.468087152168E+00
  7.557704197994E+00  7.648396648370E+00  7.740177408151E+00  7.833059537048E+00
  7.927056251493E+00  8.022180926511E+00  8.118447097629E+00  8.215868462801E+00
  8.314458884354E+00  8.414232390966E+00  8.515203179658E+00  8.617385617814E+00
  8.720794245228E+00  8.825443776170E+00  8.931349101484E+00  9.038525290702E+00
  9.146987594191E+00  9.256751445321E+00  9.367832462665E+00  9.480246452217E+00
  9.594009409643E+00  9.709137522559E+00  9.825647172830E+00  9.943554938904E+00
  1.006287759817E+01  1.018363212935E+01  1.030583571490E+01  1.042950574348E+01
  1.055465981240E+01  1.068131573015E+01  1.080949151891E+01  1.093920541714E+01
  1.107047588214E+01  1.120332159273E+01  1.133776145184E+01  1.147381458927E+01
  1.161150036434E+01  1.175083836871E+01  1.189184842913E+01  1.203455061028E+01
  1.217896521761E+01  1.232511280022E+01  1.247301415382E+01  1.262269032367E+01
  1.277416260755E+01  1.292745255884E+01  1.308258198955E+01  1.323957297342E+01
  1.339844784910E+01  1.355922922329E+01  1.372193997397E+01  1.388660325366E+01
  1.405324249270E+01  1.422188140261E+01  1.439254397945E+01  1.456525450720E+01
  1.474003756129E+01  1.491691801202E+01  1.509592102817E+01  1.527707208050E+01
  1.546039694547E+01  1.564592170882E+01  1.583367276932E+01  1.602367684255E+01
  1.621596096466E+01  1.641055249624E+01  1.660747912619E+01  1.680676887571E+01
  1.700845010222E+01  1.721255150344E+01  1.741910212148E+01  1.762813134694E+01
  1.783966892311E+01  1.805374495018E+01  1.827038988959E+01  1.848963456826E+01
  1.871151018308E+01  1.893604830528E+01  1.916328088494E+01  1.939324025556E+01
  1.962595913863E+01  1.986147064829E+01  2.009980829607E+01  2.034100599562E+01
  2.058509806757E+01  2.083211924438E+01  2.108210467531E+01  2.133508993142E+01
  2.159111101059E+01  2.185020434272E+01  2.211240679483E+01  2.237775567637E+01
  2.264628874449E+01  2.291804420942E+01  2.319306073993E+01  2.347137746881E+01
  2.375303399844E+01  2.403807040642E+01  2.432652725130E+01  2.461844557831E+01
  2.491386692525E+01  2.521283332836E+01  2.551538732830E+01  2.582157197624E+01
  2.613143083995E+01  2.644500801003E+01  2.676234810615E+01  2.708349628342E+01
  2.740849823883E+01  2.773740021769E+01  2.807024902030E+01  2.840709200855E+01
  2.874797711265E+01  2.909295283800E+01  2.944206827206E+01  2.979537309132E+01
  3.015291756842E+01  3.051475257924E+01  3.088092961019E+01  3.125150076551E+01
  3.162651877470E+01  3.200603700000E+01  3.239010944400E+01  3.277879075732E+01
  3.317213624641E+01  3.357020188137E+01  3.397304430394E+01  3.438072083559E+01
  3.479328948562E+01  3.521080895945E+01  3.563333866696E+01  3.606093873096E+01
  3.649366999573E+01  3.693159403568E+01  3.737477316411E+01  3.782327044208E+01
  3.827714968739E+01  3.873647548363E+01  3.920131318944E+01  3.967172894771E+01
  4.014778969508E+01  4.062956317142E+01  4.111711792948E+01  4.161052334464E+01
  4.210984962477E+01  4.261516782027E+01  4.312654983411E+01  4.364406843212E+01
  4.416779725331E+01
</grid-data>
</grid>
<valence-charge total-charge="24" is-unscreening-charge="yes"
 rescaled-to-z-pseudo="no">
<radfunc>
<data npts="457">
  1.040712634015E+01  1.041379009306E+01  1.043371185987E+01  1.046695356141E+01
  1.051318201930E+01  1.057398710930E+01  1.065151443600E+01  1.074033361792E+01
  1.084025637511E+01  1.095685482035E+01  1.108837365227E+01  1.123143473207E+01
  1.140448080607E+01  1.158537909943E+01  1.179899128390E+01  1.201254767256E+01
  1.225872679039E+01  1.249232837968E+01  1.275521930222E+01  1.305101045640E+01
  1.338373621853E+01  1.367951670132E+01  1.400434102930E+01  1.436096684254E+01
  1.475238702079E+01  1.518184191396E+01  1.565282965834E+01  1.603558016469E+01
  1.644549092527E+01  1.688433316848E+01  1.735396083882E+01  1.785630707306E+01
  1.839337856311E+01  1.896724732164E+01  1.958003928284E+01  2.023391907718E+01
  2.093107021676E+01  2.167366981694E+01  2.219504435015E+01  2.273818695574E+01
  2.330369291727E+01  2.389212932273E+01  2.450402718185E+01  2.513987253164E+01
  2.580009644461E+01  2.648506385313E+01  2.719506110474E+01  2.793028216594E+01
  2.869081339804E+01  2.947661683728E+01  3.028751192436E+01  3.112315564578E+01
  3.198302107207E+01  3.286637430670E+01  3.377224989567E+01  3.469942479157E+01
  3.564639101859E+01  3.661132724790E+01  3.759206956571E+01  3.858608180044E+01
  3.959042587142E+01  4.060173272823E+01  4.161617456788E+01  4.262943914478E+01
  4.363670712418E+01  4.463263357028E+01  4.561133480264E+01  4.609223826252E+01
  4.656638199210E+01  4.703287750440E+01  4.749080299524E+01  4.793920396515E+01
  4.837709403481E+01  4.880345596775E+01  4.921724291391E+01  4.961737988739E+01
  5.000276549151E+01  5.037227390397E+01  5.072475713394E+01  5.105904756251E+01
  5.137396077661E+01  5.166829870547E+01  5.194085306712E+01  5.219040913095E+01
  5.241574980000E+01  5.261566001509E+01  5.278893147964E+01  5.293436770200E+01
  5.305078934866E+01  5.313703989847E+01  5.319199158452E+01  5.321455160658E+01
  5.320366859251E+01  5.315833928334E+01  5.307761541181E+01  5.296061073955E+01
  5.280650821353E+01  5.261456719741E+01  5.238413072852E+01  5.211463274656E+01
  5.180560523537E+01  5.145668521465E+01  5.106762151426E+01  5.063828126025E+01
  5.016865599799E+01  4.965886737563E+01  4.910917230851E+01  4.851996754454E+01
  4.789179354981E+01  4.722533763459E+01  4.652143624187E+01  4.578107632338E+01
  4.500539573251E+01  4.419568256935E+01  4.335337341989E+01  4.248005044028E+01
  4.157743724671E+01  4.064739358313E+01  3.969190875138E+01  3.871309380262E+01
  3.771317250387E+01  3.669447110944E+01  3.565940698409E+01  3.461047614191E+01
  3.355023978259E+01  3.248130992428E+01  3.140633424931E+01  3.032798029557E+01
  2.924891914144E+01  2.817180874583E+01  2.709927711693E+01  2.603390549243E+01
  2.497821172095E+01  2.393463403845E+01  2.290551543358E+01  2.189308879368E+01
  2.089946301616E+01  1.992661026036E+01  1.897635450132E+01  1.805036152960E+01
  1.715013052147E+01  1.627698728034E+01  1.543207922539E+01  1.461637217579E+01
  1.383064895076E+01  1.307550977710E+01  1.235137446701E+01  1.165848630185E+01
  1.099691753183E+01  1.036657637822E+01  9.767215404803E+00  9.198441108838E+00
  8.659724569005E+00  8.150412979879E+00  7.669741898165E+00  7.216848026061E+00
  6.790782360963E+00  6.390523547829E+00  6.014991280319E+00  5.663059608490E+00
  5.333570023541E+00  5.025344202986E+00  4.737197314767E+00  4.467954430125E+00
  4.216467483049E+00  3.981622109194E+00  3.762344142370E+00  3.557604576571E+00
  3.366423661411E+00  3.187873873123E+00  3.021081797247E+00  2.865228924751E+00
  2.719551387486E+00  2.583338679653E+00  2.455930405925E+00  2.336708486554E+00
  2.225087836013E+00  2.120516080929E+00  2.022472912650E+00  1.930469437333E+00
  1.844047408374E+00  1.762778357271E+00  1.686262637929E+00  1.614128398536E+00
  1.546030494226E+00  1.481649352921E+00  1.420689805956E+00  1.362879894339E+00
  1.307969660726E+00  1.255729936438E+00  1.205951132060E+00  1.158442039377E+00
  1.113028651586E+00  1.069553007907E+00  1.027872067926E+00  9.878566201968E-01
  9.493902288820E-01  9.123682215101E-01  8.766967202351E-01  8.422917183970E-01
  8.090782036143E-01  7.769893281454E-01  7.459656268144E-01  7.159542824067E-01
  6.869084381041E-01  6.587865562361E-01  6.315518223741E-01  6.051715935875E-01
  5.796168895010E-01  5.548619246508E-01  5.308836805191E-01  5.076615155358E-01
  4.851768112660E-01  4.634126529548E-01  4.423535425680E-01  4.219851424528E-01
  4.022940477432E-01  3.832675856446E-01  3.648936397576E-01  3.471604976456E-01
  3.300567198092E-01  3.135710284939E-01  2.976922145259E-01  2.824090606468E-01
  2.677102797972E-01  2.535844668847E-01  2.400200626410E-01  2.270053282478E-01
  2.145283294852E-01  2.025769292346E-01  1.911387872398E-01  1.802013661094E-01
  1.697519426147E-01  1.597776234132E-01  1.502653643958E-01  1.412019929298E-01
  1.325742323327E-01  1.243687279752E-01  1.165720744879E-01  1.091708435824E-01
  1.021516120721E-01  9.550098973325E-02  8.920564667851E-02  8.325233998505E-02
  7.762793935265E-02  7.231945161111E-02  6.731404393540E-02  6.259906566145E-02
  5.816206862775E-02  5.399082599540E-02  5.007334952425E-02  4.639790530276E-02
  4.295302794664E-02  3.972753329414E-02  3.671052963565E-02  3.389142752157E-02
  3.125994819588E-02  2.880613070402E-02  2.652033772266E-02  2.439326015701E-02
  2.241592054846E-02  2.057967533261E-02  1.887621598519E-02  1.729756909187E-02
  1.583609537748E-02  1.448448773067E-02  1.323576826244E-02  1.208328443966E-02
  1.102070433908E-02  1.004201107168E-02  9.141496432584E-03  8.313753836253E-03
  7.553670601755E-03  6.856419656568E-03  6.217450730773E-03  5.632481115612E-03
  5.097486061523E-03  4.608688890773E-03  4.162550898722E-03  3.755761115625E-03
  3.385225997834E-03  3.048059113427E-03  2.741570882748E-03  2.463258429346E-03
  2.210795591356E-03  1.982023137780E-03  1.774939228343E-03  1.587690149910E-03
  1.418561356817E-03  1.265968837079E-03  1.128450821297E-03  1.004659846285E-03
  8.933551810288E-04  7.933956185563E-04  7.037326337369E-04  6.234039038725E-04
  5.515271862534E-04  4.872945445794E-04  4.299669143027E-04  3.788689954903E-04
  3.333844607113E-04  2.929514646949E-04  2.570584420336E-04  2.252401789909E-04
  1.970741454726E-04  1.721770733908E-04  1.502017679649E-04  1.308341389144E-04
  1.137904389884E-04  9.881469781047E-05  8.567633957500E-05  7.416797369519E-05
  6.410334806146E-05  5.531545510594E-05  4.765478138429E-05  4.098769187221E-05
  3.519494062962E-05  3.017029991234E-05  2.581930020856E-05  2.205807404944E-05
  1.881229679171E-05  1.601621789876E-05  1.361177655762E-05  1.154779576641E-05
  9.779249311644E-06  8.266596329898E-06  6.975178415367E-06  5.874674495020E-06
  4.938608947170E-06  4.143908688055E-06  3.470505194535E-06  2.900977669319E-06
  2.420233788056E-06  2.015224694760E-06  1.674691132981E-06  1.388937814421E-06
  1.149633333777E-06  9.496331380115E-07  7.828232495871E-07  6.439826260214E-07
  5.286622121356E-07  4.330789063485E-07  3.540228181383E-07  2.887763402974E-07
  2.350436968443E-07  1.908897555114E-07  1.546870127577E-07  1.250697694728E-07
  1.008946172077E-07  8.120644821498E-08  6.520928814485E-08  5.224132831700E-08
  4.175360546902E-08  3.329184118837E-08  2.648101129473E-08  2.101226767812E-08
  1.663188194073E-08  1.313192205356E-08  1.034241052707E-08  8.124745699537E-09
  6.366197039527E-09  4.975311195885E-09  3.878088242705E-09  3.014807471656E-09
  2.337399471107E-09  1.807276370573E-09  1.393545268801E-09  1.071541231843E-09
  8.216260515062E-10  6.282073826704E-10  4.789401002895E-10  3.640778861249E-10
  2.759483081068E-10  2.085291134890E-10  1.571072286584E-10  1.180051390269E-10
  8.836199581882E-11  6.595903633418E-11  4.908077460942E-11  3.640497609651E-11
  2.691572135649E-11  1.983493145652E-11  1.456860755987E-11  1.066475971868E-11
  7.780591218834E-12  5.656987140783E-12  4.098747830809E-12  2.959325513456E-12
  2.129078568156E-12  1.526264120563E-12  1.090154786814E-12  7.757973100063E-13
  5.500357659832E-13  3.885051945147E-13  2.733671986360E-13  1.916107330934E-13
  1.337818057618E-13  9.303743852551E-14  6.444382785692E-14  4.445769767457E-14
  3.054453822671E-14  2.089872310708E-14  1.423914461848E-14  9.660600187002E-15
  6.526167259693E-15  4.389587628871E-15  2.939530337874E-15  1.959737292354E-15
  1.300649129307E-15  8.592929546722E-16  5.650895367118E-16  3.698827014695E-16
  2.409667086394E-16  1.562325639005E-16  1.008050942402E-16  6.472386035654E-17
  4.135153631657E-17  2.628682695350E-17  1.662561101184E-17  1.046124374564E-17
  6.548295605226E-18  4.077417021032E-18  2.525376812663E-18  1.555691167174E-18
  9.531215301047E-19  5.807269961271E-19  3.518562589171E-19  2.119816308024E-19
  1.224641186121E-19  7.301922062084E-20  4.328141700477E-20  2.550162583492E-20
  0.000000000000E+00  0.000000000000E+00  0.000000000000E+00  0.000000000000E+00
  0.000000000000E+00  0.000000000000E+00  0.000000000000E+00  0.000000000000E+00
  0.000000000000E+00  0.000000000000E+00  0.000000000000E+00  0.000000000000E+00
  0.000000000000E+00  0.000000000000E+00  0.000000000000E+00  0.000000000000E+00
  0.000000000000E+00  0.000000000000E+00  0.000000000000E+00  0.000000000000E+00
  0.000000000000E+00  0.000000000000E+00  0.000000000000E+00  0.000000000000E+00
  0.000000000000E+00
</data>
</radfunc>
</valence-charge>
<pseudocore-charge matching-radius="0.503980289475"
 number-of-continuous-derivatives="4">
<annotation model-charge-form="Teter function with specified parameters" />
<radfunc>
<data npts="290">
  2.776651261140E+02  2.776260807791E+02  2.775093778868E+02  2.773147332055E+02
  2.770442263163E+02  2.766887434923E+02  2.762360225229E+02  2.757180818558E+02
  2.751363044559E+02  2.744586505269E+02  2.736958387700E+02  2.728679409537E+02
  2.718690837900E+02  2.708278723664E+02  2.696022297831E+02  2.683810357067E+02
  2.669783427265E+02  2.656522433463E+02  2.641655269543E+02  2.624997891578E+02
  2.606347981675E+02  2.589845167025E+02  2.571802936218E+02  2.552090072754E+02
  2.530566770749E+02  2.507084644624E+02  2.481486895249E+02  2.460801325036E+02
  2.438760809517E+02  2.415290856764E+02  2.390315079060E+02  2.363755526016E+02
  2.335533096543E+02  2.305568039861E+02  2.273780556374E+02  2.240091509695E+02
  2.204423261488E+02  2.166700640824E+02  2.140375372107E+02  2.113085062733E+02
  2.084810784459E+02  2.055534951288E+02  2.025241535666E+02  1.993916300469E+02
  1.961547046877E+02  1.928123878120E+02  1.893639478833E+02  1.858089409542E+02
  1.821472415508E+02  1.783790748843E+02  1.745050502439E+02  1.705261953855E+02
  1.664439916808E+02  1.622604097435E+02  1.579779451923E+02  1.535996541459E+02
  1.491291879847E+02  1.445708268384E+02  1.399295111893E+02  1.352108709027E+02
  1.304212509203E+02  1.255677327761E+02  1.206581510195E+02  1.157011035649E+02
  1.107059549255E+02  1.056828312423E+02  1.006426059884E+02  9.811967672296E+01
  9.559687521855E+01  9.307575792980E+01  9.055792124957E+01  8.804499966696E+01
  8.553866370527E+01  8.304061763324E+01  8.055259694395E+01  7.807636559640E+01
  7.561371301570E+01  7.316645084882E+01  7.073640947406E+01  6.832543426350E+01
  6.593538159929E+01  6.356811464592E+01  6.122549888238E+01  5.890939740002E+01
  5.662166597339E+01  5.436414791381E+01  5.213866871729E+01  4.994703052079E+01
  4.779100638288E+01  4.567233440777E+01  4.359271173364E+01  4.155378840921E+01
  3.955716118476E+01  3.760436724666E+01  3.569687792694E+01  3.383609242208E+01
  3.202333155768E+01  3.025983163808E+01  2.854673842238E+01  2.688510127019E+01
  2.527586750257E+01  2.371987702514E+01  2.221785726164E+01  2.077041844730E+01
  1.937804933175E+01  1.804111334161E+01  1.675984525229E+01  1.553434841763E+01
  1.436459260474E+01  1.325041247891E+01  1.219150678099E+01  1.118743823590E+01
  1.023763422687E+01  9.341388265029E+00  8.497862278135E+00  7.706089736115E+00
  6.964979623579E+00  6.273321261896E+00  5.629789974886E+00  5.032953583086E+00
  4.481279702064E+00  3.973143810305E+00  3.506838041966E+00  3.080580649417E+00
  2.692526070147E+00  2.340775522386E+00  2.023388043963E+00  1.738391879614E+00
  1.483796113411E+00  1.257602435394E+00  1.057816925095E+00  8.824617296107E-01
  7.295865105028E-01  5.972795321484E-01  4.836782645333E-01  3.869793759307E-01
  3.054479955926E-01  2.374261335762E-01  1.813401541492E-01  1.357072108482E-01
  9.914056513034E-02  7.035372650020E-02  4.816336982026E-02  3.149100493716E-02
  1.936339444297E-02  1.091173693534E-02  5.369655082229E-03  2.070049625137E-03
  4.409016224011E-04  1.251657474131E-07  3.495909188769E-04  1.168456553282E-03
  2.205952952817E-03  3.273784435375E-03  4.238306782690E-03  5.012648259826E-03
  5.548935843537E-03  5.830781498245E-03  5.866171624855E-03  5.680887005619E-03
  5.312561086210E-03  4.805461842573E-03  4.206057492964E-03  3.559399783094E-03
  2.906331445445E-03  2.281497731025E-03  1.712116677098E-03  1.217440028992E-03
  8.088174259594E-04  4.902614124861E-04  2.594006940362E-04  1.087042465070E-04
  2.685958178520E-05  1.945580021593E-07  1.404320352731E-05  5.397141882644E-05
  1.067971965673E-04  1.613610158739E-04  2.090240341532E-04  2.438932645009E-04
  2.627927538789E-04  2.650166459203E-04  2.519129053768E-04  2.263546672230E-04
  1.921592699094E-04  1.535130458983E-04  1.144532789201E-04  7.844817691427E-05
  4.810234996923E-05  2.500044836785E-05  9.686742954525E-06  1.764933031483E-06
  9.160221182986E-08  3.029480648628E-06  8.723593925845E-06  1.536460980043E-05
  2.140888418710E-05  2.573306698019E-05  2.771151310129E-05  2.721579167018E-05
  2.454588030349E-05  2.031088239192E-05  1.528231890690E-05  1.024466090811E-05
  5.865735295172E-06  2.604428348062E-06  6.656597872883E-07  4.153875382454E-09
  0.000000000000E+00  0.000000000000E+00  0.000000000000E+00  0.000000000000E+00
  0.000000000000E+00  0.000000000000E+00  0.000000000000E+00  0.000000000000E+00
  0.000000000000E+00  0.000000000000E+00  0.000000000000E+00  0.000000000000E+00
  0.000000000000E+00  0.000000000000E+00  0.000000000000E+00  0.000000000000E+00
  0.000000000000E+00  0.000000000000E+00  0.000000000000E+00  0.000000000000E+00
  0.000000000000E+00  0.000000000000E+00  0.000000000000E+00  0.000000000000E+00
  0.000000000000E+00  0.000000000000E+00  0.000000000000E+00  0.000000000000E+00
  0.000000000000E+00  0.000000000000E+00  0.000000000000E+00  0.000000000000E+00
  0.000000000000E+00  0.000000000000E+00  0.000000000000E+00  0.000000000000E+00
  0.000000000000E+00  0.000000000000E+00  0.000000000000E+00  0.000000000000E+00
  0.000000000000E+00  0.000000000000E+00  0.000000000000E+00  0.000000000000E+00
  0.000000000000E+00  0.000000000000E+00  0.000000000000E+00  0.000000000000E+00
  0.000000000000E+00  0.000000000000E+00  0.000000000000E+00  0.000000000000E+00
  0.000000000000E+00  0.000000000000E+00  0.000000000000E+00  0.000000000000E+00
  0.000000000000E+00  0.000000000000E+00  0.000000000000E+00  0.000000000000E+00
  0.000000000000E+00  0.000000000000E+00  0.000000000000E+00  0.000000000000E+00
  0.000000000000E+00  0.000000000000E+00  0.000000000000E+00  0.000000000000E+00
  0.000000000000E+00  0.000000000000E+00  0.000000000000E+00  0.000000000000E+00
  0.000000000000E+00  0.000000000000E+00  0.000000000000E+00  0.000000000000E+00
  0.000000000000E+00  0.000000000000E+00  0.000000000000E+00  0.000000000000E+00
  0.000000000000E+00  0.000000000000E+00
</data>
</radfunc>
</pseudocore-charge>
<semilocal-potentials set="scalar_relativistic">
<slps n="4" l="s" rc="1.30874354285">
<radfunc>
<data npts="290">
 -2.729905801167E+01 -2.730016237081E+01 -2.730346282263E+01 -2.730896634663E+01
 -2.731661239894E+01 -2.732665600882E+01 -2.733943978550E+01 -2.735405538775E+01
 -2.737045986136E+01 -2.738955106369E+01 -2.741101982074E+01 -2.743429450124E+01
 -2.746233944337E+01 -2.749153166841E+01 -2.752583981387E+01 -2.755996419557E+01
 -2.759908709399E+01 -2.763600151124E+01 -2.767730328564E+01 -2.772347285287E+01
 -2.777503226399E+01 -2.782053820518E+01 -2.787016203492E+01 -2.792422837702E+01
 -2.798307734397E+01 -2.804706294853E+01 -2.811655082704E+01 -2.817250246805E+01
 -2.823191920865E+01 -2.829496096481E+01 -2.836178641814E+01 -2.843255130358E+01
 -2.850740640087E+01 -2.858649519688E+01 -2.866995118443E+01 -2.875789476188E+01
 -2.885042969720E+01 -2.894763912011E+01 -2.901507215359E+01 -2.908461906773E+01
 -2.915628312053E+01 -2.923006010454E+01 -2.930593751328E+01 -2.938389365316E+01
 -2.946389670001E+01 -2.954590369968E+01 -2.962985951280E+01 -2.971569570408E+01
 -2.980332937717E+01 -2.989266195697E+01 -2.998357792168E+01 -3.007594348808E+01
 -3.016960525434E+01 -3.026438880562E+01 -3.036009728929E+01 -3.045650996741E+01
 -3.055338075612E+01 -3.065043676264E+01 -3.074737683282E+01 -3.084387012353E+01
 -3.093955471675E+01 -3.103403629374E+01 -3.112688689042E+01 -3.121764375701E+01
 -3.130580834766E+01 -3.139084546789E+01 -3.147218261023E+01 -3.151127446408E+01
 -3.154920951054E+01 -3.158590553609E+01 -3.162127795949E+01 -3.165523984242E+01
 -3.168770190555E+01 -3.171857255039E+01 -3.174775788708E+01 -3.177516176864E+01
 -3.180068583179E+01 -3.182422954479E+01 -3.184569026237E+01 -3.186496328835E+01
 -3.188194194588E+01 -3.189651765582E+01 -3.190858002338E+01 -3.191801693319E+01
 -3.192471465321E+01 -3.192855794737E+01 -3.192943019737E+01 -3.192721353358E+01
 -3.192178897516E+01 -3.191303657948E+01 -3.190083560089E+01 -3.188506465864E+01
 -3.186560191405E+01 -3.184232525666E+01 -3.181511249923E+01 -3.178384158127E+01
 -3.174839078081E+01 -3.170863893408E+01 -3.166446566243E+01 -3.161575160618E+01
 -3.156237866467E+01 -3.150423024177E+01 -3.144119149621E+01 -3.137314959568E+01
 -3.129999397405E+01 -3.122161659044E+01 -3.113791218931E+01 -3.104877856037E+01
 -3.095411679727E+01 -3.085383155391E+01 -3.074783129729E+01 -3.063602855586E+01
 -3.051834016247E+01 -3.039468749098E+01 -3.026499668609E+01 -3.012919888586E+01
 -2.998723043693E+01 -2.983903310288E+01 -2.968455426635E+01 -2.952374712655E+01
 -2.935657089428E+01 -2.918299098727E+01 -2.900297922997E+01 -2.881651406275E+01
 -2.862358076700E+01 -2.842417171393E+01 -2.821828664679E+01 -2.800593300809E+01
 -2.778712632566E+01 -2.756189067402E+01 -2.733025923021E+01 -2.709227494667E+01
 -2.684799136720E+01 -2.659747361609E+01 -2.634079959490E+01 -2.607806142614E+01
 -2.580936718854E+01 -2.553484299370E+01 -2.525463546043E+01 -2.496891464828E+01
 -2.467787751850E+01 -2.438175199558E+01 -2.408080170782E+01 -2.377533148889E+01
 -2.346569372394E+01 -2.315229562295E+01 -2.283560749879E+01 -2.251617211793E+01
 -2.219461517481E+01 -2.187165691679E+01 -2.154812491258E+01 -2.122496791206E+01