<?xml version="1.0" encoding="UTF-8" ?>
<psml version="1.1" energy_unit="hartree" length_unit="bohr"
 uuid="d7dbc590-539f-11e8-5e92-1d33fbd348a1"
 xmlns="http://esl.cecam.org/PSML/ns/1.1">
<provenance creator="ONCVPSP-3.3.0+psml-3.3.0-73 (fully-relativistic)"
 date="2018-05-09">
<annotation action="semilocal-pseudopotential-generation"
 action-cont="projectors-generation" />
<input-file name="oncvpsp-input">
<![CDATA[# atsym z nc nv iexc psfile
Pt 78 10 4 -116133 upf
# n l f
1 0 2.0
2 0 2.0
2 1 6.0
3 0 2.0
3 1 6.0
3 2 10.0
4 0 2.0
4 1 6.0
4 2 10.0
4 3 14.0
5 0 2.0
5 1 6.0
5 2 9.0
6 0 1.0
# lmax
3
# l rc ep ncon nbas qcut
0 1.45 0.0 4 7 8.8
1 1.45 0.0 4 7 9.0
2 1.45 0.0 4 7 8.8
3 1.9 0.1 4 8 6.8
# lloc lpopt rc5 dvloc0
4 3 1.3 0.0
# l nproj debl
0 2 1.0
1 2 2.5
2 2 1.0
3 2 3.0
# icmod fcfact rcfact
3 5.0 1.37
# epsh1 epsh2 depsh
-14.0 12.0 0.02
# rlmax drl
5.0 0.01
 0
]]>
</input-file>
</provenance>
<pseudo-atom-spec atomic-label="Pt" atomic-number="78" z-pseudo="18"
 flavor="Hamann&apos;s oncvpsp" relativity="dirac" spin-dft="no"
 core-corrections="yes">
<annotation pseudo-energy="-121.148217983" />
<exchange-correlation>
<annotation oncvpsp-xc-code="-116133" oncvpsp-xc-type="libxc-interface" />
<libxc-info number-of-functionals="2">
<functional name="Perdew, Burke &amp; Ernzerhof SOL (GGA)" type="exchange"
 id="116" />
<functional name="Perdew, Burke &amp; Ernzerhof SOL (GGA)" type="correlation"
 id="133" />
</libxc-info>
</exchange-correlation>
<valence-configuration total-valence-charge="18">
<shell n="5" l="s" occupation="2" />
<shell n="5" l="p" occupation="6" />
<shell n="5" l="d" occupation="9" />
<shell n="6" l="s" occupation="1" />
</valence-configuration>
</pseudo-atom-spec>
<grid npts="457">
<annotation type="sampled from oncvpsp log grid"
 recipe="r(i:1..N) = r1*exp(a*(i-1)) + r=0; resampled"
 recipe-cont="r1: scale; a: step" scale="0.641025641026E-05"
 step="0.119285708653E-01" delta="0.500000000000E-02" rmax="44.1724925976" />
<grid-data>
  0.000000000000E+00  5.044079132587E-03  1.007515222223E-02  1.511433492157E-02
  2.012432589434E-02  2.524358775694E-02  3.055197424992E-02  3.567680395129E-02
  4.067912281364E-02  4.583283320620E-02  5.102715052485E-02  5.613651102371E-02
  6.175747298255E-02  6.713563554845E-02  7.298215653624E-02  7.839705833785E-02
  8.421371808842E-02  8.938927289305E-02  9.488290375636E-02  1.007141588008E-01
  1.069037875253E-01  1.121282753347E-01  1.176080887363E-01  1.233557057302E-01
  1.293842141275E-01  1.357073413533E-01  1.423394857043E-01  1.475254438101E-01
  1.529003457030E-01  1.584710753094E-01  1.642447673631E-01  1.702288165427E-01
  1.764308869423E-01  1.828589218880E-01  1.895211541104E-01  1.964261162895E-01
  2.035826519825E-01  2.109999269504E-01  2.160943091867E-01  2.213116901877E-01
  2.266550396356E-01  2.321273989125E-01  2.377318828319E-01  2.434716814109E-01
  2.493500616869E-01  2.553703695763E-01  2.615360317794E-01  2.678505577306E-01
  2.743175415965E-01  2.809406643208E-01  2.877236957202E-01  2.946704966296E-01
  3.017850211002E-01  3.090713186497E-01  3.165335365672E-01  3.241759222740E-01
  3.320028257414E-01  3.400187019661E-01  3.482281135064E-01  3.566357330789E-01
  3.652463462184E-01  3.740648540015E-01  3.830962758365E-01  3.923457523203E-01
  4.018185481643E-01  4.115200551912E-01  4.214557954037E-01  4.265132649485E-01
  4.316314241279E-01  4.368110012175E-01  4.420527332321E-01  4.473573660308E-01
  4.527256544232E-01  4.581583622763E-01  4.636562626236E-01  4.692201377751E-01
  4.748507794284E-01  4.805489887815E-01  4.863155766469E-01  4.921513635667E-01
  4.980571799295E-01  5.040338660886E-01  5.100822724817E-01  5.162032597515E-01
  5.223976988685E-01  5.286664712549E-01  5.350104689100E-01  5.414305945369E-01
  5.479277616713E-01  5.545028948114E-01  5.611569295491E-01  5.678908127037E-01
  5.747055024562E-01  5.816019684856E-01  5.885811921075E-01  5.956441664128E-01
  6.027918964097E-01  6.100253991666E-01  6.173457039566E-01  6.247538524041E-01
  6.322508986330E-01  6.398379094166E-01  6.475159643295E-01  6.552861559015E-01
  6.631495897723E-01  6.711073848496E-01  6.791606734678E-01  6.873106015494E-01
  6.955583287680E-01  7.039050287132E-01  7.123518890578E-01  7.209001117265E-01
  7.295509130672E-01  7.383055240240E-01  7.471651903123E-01  7.561311725960E-01
  7.652047466672E-01  7.743872036272E-01  7.836798500707E-01  7.930840082715E-01
  8.026010163708E-01  8.122322285673E-01  8.219790153101E-01  8.318427634938E-01
  8.418248766557E-01  8.519267751756E-01  8.621498964777E-01  8.724956952354E-01
  8.829656435782E-01  8.935612313012E-01  9.042839660768E-01  9.151353736697E-01
  9.261169981538E-01  9.372304021316E-01  9.484771669572E-01  9.598588929607E-01
  9.713771996762E-01  9.830337260723E-01  9.948301307852E-01  1.006768092355E+00
  1.018849309463E+00  1.031075501176E+00  1.043448407191E+00  1.055969788077E+00
  1.068641425534E+00  1.081465122640E+00  1.094442704112E+00  1.107576016561E+00
  1.120866928760E+00  1.134317331905E+00  1.147929139888E+00  1.161704289567E+00
  1.175644741041E+00  1.189752477934E+00  1.204029507669E+00  1.218477861761E+00
  1.233099596102E+00  1.247896791255E+00  1.262871552750E+00  1.278026011383E+00
  1.293362323520E+00  1.308882671402E+00  1.324589263459E+00  1.340484334621E+00
  1.356570146636E+00  1.372848988396E+00  1.389323176256E+00  1.405995054372E+00
  1.422866995024E+00  1.439941398964E+00  1.457220695752E+00  1.474707344101E+00
  1.492403832230E+00  1.510312678217E+00  1.528436430355E+00  1.546777667520E+00
  1.565338999530E+00  1.584123067524E+00  1.603132544335E+00  1.622370134867E+00
  1.641838576485E+00  1.661540639403E+00  1.681479127076E+00  1.701656876601E+00
  1.722076759120E+00  1.742741680229E+00  1.763654580392E+00  1.784818435357E+00
  1.806236256581E+00  1.827911091660E+00  1.849846024760E+00  1.872044177057E+00
  1.894508707182E+00  1.917242811668E+00  1.940249725408E+00  1.963532722113E+00
  1.987095114778E+00  2.010940256155E+00  2.035071539229E+00  2.059492397700E+00
  2.084206306473E+00  2.109216782150E+00  2.134527383536E+00  2.160141712138E+00
  2.186063412684E+00  2.212296173636E+00  2.238843727720E+00  2.265709852453E+00
  2.292898370682E+00  2.320413151130E+00  2.348258108944E+00  2.376437206251E+00
  2.404954452726E+00  2.433813906159E+00  2.463019673033E+00  2.492575909109E+00
  2.522486820018E+00  2.552756661859E+00  2.583389741801E+00  2.614390418703E+00
  2.645763103727E+00  2.677512260972E+00  2.709642408103E+00  2.742158117001E+00
  2.775064014405E+00  2.808364782577E+00  2.842065159968E+00  2.876169941888E+00
  2.910683981191E+00  2.945612188965E+00  2.980959535233E+00  3.016731049655E+00
  3.052931822251E+00  3.089567004118E+00  3.126641808168E+00  3.164161509866E+00
  3.202131447984E+00  3.240557025360E+00  3.279443709664E+00  3.318797034180E+00
  3.358622598590E+00  3.398926069773E+00  3.439713182611E+00  3.480989740802E+00
  3.522761617692E+00  3.565034757104E+00  3.607815174189E+00  3.651108956279E+00
  3.694922263755E+00  3.739261330920E+00  3.784132466891E+00  3.829542056494E+00
  3.875496561171E+00  3.922002519905E+00  3.969066550144E+00  4.016695348746E+00
  4.064895692931E+00  4.113674441246E+00  4.163038534541E+00  4.212994996956E+00
  4.263550936919E+00  4.314713548162E+00  4.366490110740E+00  4.418887992069E+00
  4.471914647974E+00  4.525577623750E+00  4.579884555234E+00  4.634843169897E+00
  4.690461287936E+00  4.746746823391E+00  4.803707785272E+00  4.861352278695E+00
  4.919688506040E+00  4.978724768112E+00  5.038469465329E+00  5.098931098913E+00
  5.160118272100E+00  5.222039691366E+00  5.284704167662E+00  5.348120617674E+00
  5.412298065086E+00  5.477245641867E+00  5.542972589569E+00  5.609488260644E+00
  5.676802119772E+00  5.744923745209E+00  5.813862830152E+00  5.883629184114E+00
  5.954232734323E+00  6.025683527135E+00  6.097991729460E+00  6.171167630214E+00
  6.245221641777E+00  6.320164301478E+00  6.396006273096E+00  6.472758348373E+00
  6.550431448553E+00  6.629036625936E+00  6.708585065447E+00  6.789088086232E+00
  6.870557143267E+00  6.953003828986E+00  7.036439874934E+00  7.120877153433E+00
  7.206327679275E+00  7.292803611426E+00  7.380317254763E+00  7.468881061820E+00
  7.558507634562E+00  7.649209726177E+00  7.741000242891E+00  7.833892245806E+00
  7.927898952755E+00  8.023033740188E+00  8.119310145071E+00  8.216741866811E+00
  8.315342769213E+00  8.415126882444E+00  8.516108405033E+00  8.618301705893E+00
  8.721721326364E+00  8.826381982281E+00  8.932298566068E+00  9.039486148861E+00
  9.147959982647E+00  9.257735502439E+00  9.368828328468E+00  9.481254268410E+00
  9.595029319631E+00  9.710169671466E+00  9.826691707524E+00  9.944612008014E+00
  1.006394735211E+01  1.018471472034E+01  1.030693129698E+01  1.043061447254E+01
  1.055578184621E+01  1.068245122837E+01  1.081064064311E+01  1.094036833083E+01
  1.107165275080E+01  1.120451258381E+01  1.133896673481E+01  1.147503433563E+01
  1.161273474766E+01  1.175208756463E+01  1.189311261540E+01  1.203582996679E+01
  1.218025992639E+01  1.232642304551E+01  1.247434012205E+01  1.262403220352E+01
  1.277552058996E+01  1.292882683704E+01  1.308397275908E+01  1.324098043219E+01
  1.339987219738E+01  1.356067066375E+01  1.372339871171E+01  1.388807949625E+01
  1.405473645021E+01  1.422339328761E+01  1.439407400706E+01  1.456680289515E+01
  1.474160452989E+01  1.491850378425E+01  1.509752582966E+01  1.527869613961E+01
  1.546204049329E+01  1.564758497921E+01  1.583535599896E+01  1.602538027095E+01
  1.621768483420E+01  1.641229705221E+01  1.660924461684E+01  1.680855555224E+01
  1.701025821886E+01  1.721438131749E+01  1.742095389330E+01  1.763000534002E+01
  1.784156540410E+01  1.805566418895E+01  1.827233215922E+01  1.849160014513E+01
  1.871349934687E+01  1.893806133903E+01  1.916531807510E+01  1.939530189200E+01
  1.962804551471E+01  1.986358206088E+01  2.010194504561E+01  2.034316838616E+01
  2.058728640679E+01  2.083433384368E+01  2.108434584980E+01  2.133735800000E+01
  2.159340629600E+01  2.185252717155E+01  2.211475749761E+01  2.238013458758E+01
  2.264869620263E+01  2.292048055706E+01  2.319552632375E+01  2.347387263963E+01
  2.375555911131E+01  2.404062582064E+01  2.432911333049E+01  2.462106269046E+01
  2.491651544274E+01  2.521551362805E+01  2.551809979159E+01  2.582431698909E+01
  2.613420879296E+01  2.644781929847E+01  2.676519313006E+01  2.708637544762E+01
  2.741141195299E+01  2.774034889642E+01  2.807323308318E+01  2.841011188018E+01
  2.875103322274E+01  2.909604562141E+01  2.944519816887E+01  2.979854054690E+01
  3.015612303346E+01  3.051799650986E+01  3.088421246798E+01  3.125482301760E+01
  3.162988089381E+01  3.200943946453E+01  3.239355273811E+01  3.278227537096E+01
  3.317566267542E+01  3.357377062752E+01  3.397665587505E+01  3.438437574555E+01
  3.479698825450E+01  3.521455211355E+01  3.563712673892E+01  3.606477225978E+01
  3.649754952690E+01  3.693552012122E+01  3.737874636268E+01  3.782729131903E+01
  3.828121881486E+01  3.874059344064E+01  3.920548056192E+01  3.967594632867E+01
  4.015205768461E+01  4.063388237683E+01  4.112148896535E+01  4.161494683293E+01
  4.211432619493E+01  4.261969810927E+01  4.313113448658E+01  4.364870810042E+01
  4.417249259762E+01
</grid-data>
</grid>
<valence-charge total-charge="18" is-unscreening-charge="yes"
 rescaled-to-z-pseudo="no">
<radfunc>
<data npts="457">
  9.205453490812E-01  9.215984838481E-01  9.247475952672E-01  9.300045332158E-01
  9.373200007497E-01  9.469506109284E-01  9.592437057377E-01  9.733465057505E-01
  9.892369006274E-01  1.007812096085E+00  1.028806864074E+00  1.051695555455E+00
  1.079453345800E+00  1.108554846909E+00  1.143030187385E+00  1.177617146923E+00
  1.217637769157E+00  1.255762979794E+00  1.298842956155E+00  1.347536316648E+00
  1.402592315103E+00  1.451787473798E+00  1.506088721920E+00  1.566040395691E+00
  1.632246743701E+00  1.705378575964E+00  1.786180565181E+00  1.852309476455E+00
  1.923597565456E+00  2.000457285222E+00  2.083334171201E+00  2.172709218265E+00
  2.269101324949E+00  2.373069773834E+00  2.485216705764E+00  2.606189531705E+00
  2.736683209067E+00  2.877442288638E+00  2.977375533982E+00  3.082472542662E+00
  3.192992521408E+00  3.309205164709E+00  3.431390585731E+00  3.559839144687E+00
  3.694851156220E+00  3.836736455063E+00  3.985813796811E+00  4.142410067982E+00
  4.306859276816E+00  4.479501293332E+00  4.660680304209E+00  4.850742945032E+00
  5.050036069457E+00  5.258904111968E+00  5.477685998250E+00  5.706711554856E+00
  5.946297368066E+00  6.196742040709E+00  6.458320795488E+00  6.731279374406E+00
  7.015827186294E+00  7.312129658817E+00  7.620299757873E+00  7.940388646483E+00
  8.272375467681E+00  8.616156251818E+00  8.971531968877E+00  9.153476613296E+00
  9.338195771136E+00  9.525632026066E+00  9.715719501449E+00  9.908383406755E+00
  1.010353957792E+01  1.030109401332E+01  1.050094240716E+01  1.070296968243E+01
  1.090704952574E+01  1.111304392649E+01  1.132080272331E+01  1.153016316079E+01
  1.174094945980E+01  1.195297240514E+01  1.216602895422E+01  1.237990187117E+01
  1.259435939069E+01  1.280915491644E+01  1.302402675892E+01  1.323869791827E+01
  1.345287591724E+01  1.366625269041E+01  1.387850453529E+01  1.408929213169E+01
  1.429826063550E+01  1.450503985323E+01  1.470924450389E+01  1.491047457445E+01
  1.510831577545E+01  1.530234010282E+01  1.549210651211E+01  1.567716171085E+01
  1.585704107434E+01  1.603126968995E+01  1.619936353420E+01  1.636083078628E+01
  1.651517328091E+01  1.666188810258E+01  1.680046932197E+01  1.693040987444E+01
  1.705120357907E+01  1.716234729523E+01  1.726334321249E+01  1.735370126750E+01
  1.743294168026E+01  1.750059760009E+01  1.755621784960E+01  1.759936975331E+01
  1.762964203520E+01  1.764664776770E+01  1.765002735236E+01  1.763945151062E+01
  1.761462426114E+01  1.757528585813E+01  1.752121566379E+01  1.745223492609E+01
  1.736820943217E+01  1.726905200627E+01  1.715472482084E+01  1.702524148865E+01
  1.688066890406E+01  1.672112880199E+01  1.654679900389E+01  1.635791432161E+01
  1.615476709177E+01  1.593770731572E+01  1.570714238307E+01  1.546353636016E+01
  1.520740882882E+01  1.493933326513E+01  1.465993495270E+01  1.436988843021E+01
  1.406991447842E+01  1.376077665782E+01  1.344327741374E+01  1.311825377201E+01
  1.278657265407E+01  1.244912584651E+01  1.210682466539E+01  1.176059436126E+01
  1.141136831535E+01  1.106008208201E+01  1.070766733590E+01  1.035504578532E+01
  1.000312311539E+01  9.652783025703E+00  9.304881427597E+00  8.960240865362E+00
  8.619645224114E+00  8.283834784448E+00  7.953501680388E+00  7.629285812719E+00
  7.311771264474E+00  7.001483259306E+00  6.698885696821E+00  6.404379292432E+00
  6.118300343965E+00  5.840920140842E+00  5.572445021403E+00  5.313017074842E+00
  5.062715477552E+00  4.821558446652E+00  4.589505787417E+00  4.366463972847E+00
  4.152299583010E+00  3.946857500578E+00  3.749964351083E+00  3.561430368192E+00
  3.381052066357E+00  3.208614448058E+00  3.043893106626E+00  2.886656181288E+00
  2.736666166850E+00  2.593681579814E+00  2.457458483372E+00  2.327751874678E+00
  2.204316938596E+00  2.086910172761E+00  1.975290389379E+00  1.869219599599E+00
  1.768463786656E+00  1.672793574219E+00  1.581984796521E+00  1.495818976998E+00
  1.414083721912E+00  1.336573035984E+00  1.263087566199E+00  1.193434780107E+00
  1.127429085243E+00  1.064891895088E+00  1.005651647525E+00  9.495437811160E-01
  8.964106743219E-01  8.461015524559E-01  7.984723668574E-01  7.533856504551E-01
  7.107103535731E-01  6.703216635208E-01  6.321008112031E-01  5.959348676900E-01
  5.617165333976E-01  5.293439222593E-01  4.987203430034E-01  4.697540794075E-01
  4.423581711672E-01  4.164501967988E-01  3.919520597956E-01  3.687897790688E-01
  3.468932845355E-01  3.261962185559E-01  3.066357437860E-01  2.881523578759E-01
  2.706897153386E-01  2.541944568033E-01  2.386160457840E-01  2.239066130116E-01
  2.100208083103E-01  1.969156599418E-01  1.845504412896E-01  1.728865447142E-01
  1.618873623784E-01  1.515181738115E-01  1.417460399633E-01  1.325397034813E-01
  1.238694949340E-01  1.157072446991E-01  1.080262002290E-01  1.008009484109E-01
  9.400734273883E-02  8.762243502289E-02  8.162441136814E-02  7.599253216424E-02
  7.070707583828E-02  6.574928613395E-02  6.110132269190E-02  5.674621471832E-02
  5.266781754030E-02  4.885077185829E-02  4.528046551508E-02  4.194299762258E-02
  3.882514486704E-02  3.591432986430E-02  3.319859141193E-02  3.066655650541E-02
  2.830741399027E-02  2.611088972744E-02  2.406722315497E-02  2.216714513432E-02
  2.040185697463E-02  1.876301053368E-02  1.724268929956E-02  1.583339036297E-02
  1.452800719605E-02  1.331981316007E-02  1.220244567128E-02  1.116989096099E-02
  1.021646937341E-02  9.336821151867E-03  8.525892671231E-03  7.778923081426E-03
  7.091431333253E-03  6.459203564147E-03  5.878280826902E-03  5.344947149433E-03
  4.855717917903E-03  4.407328579170E-03  3.996723661397E-03  3.621046113943E-03
  3.277626969226E-03  2.963975330335E-03  2.677768688617E-03  2.416843575545E-03
  2.179186552839E-03  1.962925544095E-03  1.766321510318E-03  1.587760470560E-03
  1.425745867683E-03  1.278891277859E-03  1.145913461099E-03  1.025625748713E-03
  9.169317622974E-04  8.188194576028E-04  7.303554855110E-04  6.506798613399E-04
  5.790009327942E-04  5.145906361967E-04  4.567800300775E-04  4.049550947127E-04
  3.585527859741E-04  3.170573317493E-04  2.799967591543E-04  2.469396408814E-04
  2.174920492442E-04  1.912947067766E-04  1.680203226051E-04  1.473711042247E-04
  1.290764347578E-04  1.128907062387E-04  9.859129994312E-05  8.597670525342E-05
  7.486476900869E-05  6.509106773474E-05  5.650739556760E-05  4.898036108087E-05
  4.239008659678E-05  3.662900390354E-05  3.160074061915E-05  2.721909173529E-05
  2.340707114600E-05  2.009603821777E-05  1.722489469217E-05  1.473934743208E-05
  1.259123272985E-05  1.073789809321E-05  9.141637613394E-06  7.769177201867E-06
  6.591206158662E-06  5.581951706877E-06  4.718793296071E-06  3.981913641754E-06
  3.353983629633E-06  2.819878371709E-06  2.366421856604E-06  1.982157788568E-06
  1.657144358143E-06  1.382770832191E-06  1.151593991627E-06  9.571925813116E-07
  7.940380679504E-07  6.573801281584E-07  5.431454098318E-07  4.478482254246E-07
  3.685119454896E-07  3.025999647875E-07  2.479552113356E-07  2.027472609495E-07
  1.654262061453E-07  1.346825088083E-07  1.094121408980E-07  8.868638680425E-08
  7.172574497906E-08  5.787742533651E-08  4.659599287773E-08  3.742675729037E-08
  2.999155314914E-08  2.397659606528E-08  1.912213695988E-08  1.521366983406E-08
  1.207447823801E-08  9.559332357228E-09  7.549172486130E-09  5.946635886750E-09
  4.672302862110E-09  3.661554528571E-09  2.861949454399E-09  2.231039236150E-09
  1.734554390431E-09  1.344901813377E-09  1.039923658184E-09  8.018749440784E-10
  6.165836679097E-10  4.727627601183E-10  3.614480170337E-10  2.755402477998E-10
  2.094333832291E-10  1.587132830292E-10  1.199145160836E-10  9.032453695716E-11
  6.782649457545E-11  5.077343364638E-11  3.788792746173E-11  2.818224865756E-11
  2.089507405560E-11  1.544145808745E-11  1.137341799988E-11  8.258966267762E-12
  6.044402447384E-12  4.408379847663E-12  2.669293294559E-12  1.934682059850E-12
  1.397228454676E-12  1.005428683062E-12  7.208459141011E-13  5.148989242580E-13
  3.664128644753E-13  2.597581587749E-13  1.834415721643E-13  1.290436067491E-13
  9.042014862859E-14  6.310496280946E-14  4.386425077563E-14  3.036588126875E-14
  2.093475337430E-14  1.437259358035E-14  9.825758028921E-15  6.688652433093E-15
  4.533468350942E-15  3.059281362037E-15  2.055333638741E-15  1.374662991990E-15
  9.152459095319E-16  6.065733926600E-16  4.001372571187E-16  2.627183944326E-16
  1.716735208310E-16  1.116407327424E-16  7.224760619026E-17  4.652434304652E-17
  2.981036657053E-17  1.900459541175E-17  1.205390695896E-17  7.605858956098E-18
  4.774115647926E-18  2.980811550504E-18  1.851166047069E-18  1.143398243903E-18
  7.023646335488E-19  4.290541012457E-19  2.606254247536E-19  1.574154820756E-19
  9.453101785101E-20  5.643744917465E-20  3.349624543680E-20  1.976194932568E-20
  1.158876446187E-20  6.754397391453E-21  3.912426616140E-21  2.252078356546E-21
  1.288147305962E-21  7.320813371256E-22  0.000000000000E+00  0.000000000000E+00
  0.000000000000E+00  0.000000000000E+00  0.000000000000E+00  0.000000000000E+00
  0.000000000000E+00  0.000000000000E+00  0.000000000000E+00  0.000000000000E+00
  0.000000000000E+00  0.000000000000E+00  0.000000000000E+00  0.000000000000E+00
  0.000000000000E+00  0.000000000000E+00  0.000000000000E+00  0.000000000000E+00
  0.000000000000E+00
</data>
</radfunc>
</valence-charge>
<pseudocore-charge matching-radius="0.812232228567"
 number-of-continuous-derivatives="4">
<annotation model-charge-form="Teter function with specified parameters" />
<radfunc>
<data npts="275">
  9.265811773322E+01  9.265210257480E+01  9.263412128018E+01  9.260412242253E+01
  9.256241396226E+01  9.250757214317E+01  9.243767753378E+01  9.235764292222E+01
  9.226765350791E+01  9.216271284094E+01  9.204442829436E+01  9.191586296169E+01
  9.176048698823E+01  9.159821584852E+01  9.140679765015E+01  9.121563711909E+01
  9.099552320875E+01  9.078689133566E+01  9.055236415307E+01  9.028880397139E+01
  8.999271345597E+01  8.972981759471E+01  8.944142864426E+01  8.912516581910E+01
  8.877844514777E+01  8.839846622588E+01  8.798219903659E+01  8.764422533648E+01
  8.728252990472E+01  8.689555543572E+01  8.648165894355E+01  8.603910968932E+01
  8.556608754214E+01  8.506068187991E+01  8.452089115175E+01  8.394462324113E+01
  8.332969678737E+01  8.267384364379E+01  8.221271337428E+01  8.173163404140E+01
  8.122987509821E+01  8.070669259689E+01  8.016133045024E+01  7.959302190157E+01
  7.900099122144E+01  7.838445565081E+01  7.774262761109E+01  7.707471720207E+01
  7.637993500978E+01  7.565749524673E+01  7.490661924715E+01  7.412653934049E+01
  7.331650312589E+01  7.247577817025E+01  7.160365715163E+01  7.069946346856E+01
  6.976255733409E+01  6.879234237126E+01  6.778827272349E+01  6.674986068999E+01
  6.567668489130E+01  6.456839896510E+01  6.342474078515E+01  6.224554218911E+01
  6.103073919146E+01  5.978038264750E+01  5.849464932243E+01  5.783860883776E+01
  5.717385330611E+01  5.650044536316E+01  5.581845769875E+01  5.512797343029E+01
  5.442908647628E+01  5.372190192904E+01  5.300653642535E+01  5.228311851388E+01
  5.155178901804E+01  5.081270139287E+01  5.006602207445E+01  4.931193082018E+01
  4.855062103837E+01  4.778230010510E+01  4.700718966677E+01  4.622552592597E+01
  4.543755990885E+01  4.464355771174E+01  4.384380072452E+01  4.303858582858E+01
  4.222822556686E+01  4.141304828317E+01  4.059339822842E+01  3.976963563086E+01
  3.894213672761E+01  3.811129375454E+01  3.727751489172E+01  3.644122416140E+01
  3.560286127563E+01  3.476288143052E+01  3.392175504420E+01  3.307996743559E+01
  3.223801844110E+01  3.139642196640E+01  3.055570547066E+01  2.971640938066E+01
  2.887908643232E+01  2.804430093746E+01  2.721262797373E+01  2.638465249602E+01
  2.556096836775E+01  2.474217731102E+01  2.392888777475E+01  2.312171372042E+01
  2.232127332550E+01  2.152818760512E+01  2.074307895300E+01  1.996656960334E+01
  1.919928001595E+01  1.844182718739E+01  1.769482289199E+01  1.695887185678E+01
  1.623456987576E+01  1.552250186911E+01  1.482323989433E+01  1.413734111671E+01
  1.346534574773E+01  1.280777496052E+01  1.216512879276E+01  1.153788404794E+01
  1.092649220698E+01  1.033137736282E+01  9.752934191641E+00  9.191525974798E+00
  8.647482686459E+00  8.121099162381E+00  7.612633365798E+00  7.122304766740E+00
  6.650292851382E+00  6.196735778093E+00  5.761729196809E+00  5.345325248132E+00
  4.947531758125E+00  4.568311644146E+00  4.207582546228E+00  3.865216697429E+00
  3.541041045277E+00  3.234837634882E+00  2.946344262466E+00  2.675255406056E+00
  2.421223437751E+00  2.183860119487E+00  1.962738381452E+00  1.757394379395E+00
  1.567329823907E+00  1.392014571532E+00  1.230889464140E+00  1.083369399595E+00
  9.488466132520E-01  8.266941463889E-01  7.162694743541E-01  6.169182640097E-01
  5.279782270966E-01  4.487830334780E-01  3.786662459154E-01  3.169652361646E-01
  2.630250408185E-01  2.162021145364E-01  1.758679381467E-01  1.414124396411E-01
  1.122471873431E-01  8.780831655382E-02  6.755915378160E-02  5.099250623270E-02
  3.763258857715E-02  2.703656405121E-02  1.879568266554E-02  1.253600556913E-02
  7.918711368368E-03  4.639987293291E-03  2.430515391719E-03  1.054571252467E-03
  3.087599335939E-04  2.042061117838E-05  4.573777520681E-05  2.676023886124E-04
  5.932711078006E-04  9.518752669491E-04  1.291833704782E-03  1.578224541483E-03
  1.790170611490E-03  1.918291384605E-03  1.962270870945E-03  1.928586264842E-03
  1.828436053185E-03  1.675899163661E-03  1.486348677950E-03  1.275134950930E-03
  1.056543964141E-03  8.430277326085E-04  6.446949254050E-04  4.690418978585E-04
  3.208973953834E-04  2.025485686571E-04  1.140118785492E-04  5.341014011409E-05
  1.741645033844E-05  1.727065603505E-06  1.528347489213E-06  1.192748961483E-05
  2.832259459689E-05  4.669443347894E-05  6.380947713412E-05  7.733109367562E-05
  8.584270610313E-05  8.879277390328E-05  8.637633098460E-05  7.937119495561E-05
  6.894868300970E-05  5.647867684516E-05  4.334725548003E-05  3.080207259613E-05
  1.983652113043E-05  1.111891815248E-05  4.967926998371E-06  1.370691568707E-06
  3.613541507404E-08  4.729424860909E-07  2.080136559656E-06  4.238016824913E-06
  6.388434156384E-06  8.095798921981E-06  9.083457718783E-06  9.243731574538E-06
  8.623499330801E-06  7.390282679703E-06  5.785966214583E-06  4.076317254063E-06
  2.504269403703E-06  1.253590327778E-06  4.273218234138E-07  4.264022253263E-08
  0.000000000000E+00  0.000000000000E+00  0.000000000000E+00  0.000000000000E+00
  0.000000000000E+00  0.000000000000E+00  0.000000000000E+00  0.000000000000E+00
  0.000000000000E+00  0.000000000000E+00  0.000000000000E+00  0.000000000000E+00
  0.000000000000E+00  0.000000000000E+00  0.000000000000E+00  0.000000000000E+00
  0.000000000000E+00  0.000000000000E+00  0.000000000000E+00  0.000000000000E+00
  0.000000000000E+00  0.000000000000E+00  0.000000000000E+00  0.000000000000E+00
  0.000000000000E+00  0.000000000000E+00  0.000000000000E+00  0.000000000000E+00
  0.000000000000E+00  0.000000000000E+00  0.000000000000E+00  0.000000000000E+00
  0.000000000000E+00  0.000000000000E+00  0.000000000000E+00
</data>
</radfunc>
</pseudocore-charge>
<semilocal-potentials set="lj">
<slps n="5" l="s" j="0.5" rc="1.45722069575" eref="-3.73518333906">
<radfunc>
<data npts="275">
  5.414097965414E+00  5.405900932453E+00  5.381417871961E+00  5.340640283983E+00
  5.284087468603E+00  5.209976798237E+00  5.115933403396E+00  5.008805491844E+00
  4.889059706310E+00  4.750355034992E+00  4.595208891585E+00  4.427998364000E+00
  4.227866117062E+00  4.021094697794E+00  3.780078739534E+00  3.542459395503E+00
  3.272578372821E+00  3.020385826129E+00  2.740997128530E+00  2.432091655993E+00
  2.091298825344E+00  1.794104048491E+00  1.473770774440E+00  1.129127553731E+00
  7.590587882892E-01  3.625296700031E-01 -6.138604077528E-02 -3.977750178765E-01
 -7.502857294360E-01 -1.119126284281E+00 -1.504434236675E+00 -1.906268268960E+00
 -2.324599956906E+00 -2.759305777754E+00 -3.210159536396E+00 -3.676825396982E+00
 -4.158851714250E+00 -4.655665859998E+00 -4.994751489006E+00 -5.339863932827E+00
 -5.690739637495E+00 -6.047089591220E+00 -6.408599429602E+00 -6.774929692774E+00
 -7.145716237319E+00 -7.520570803867E+00 -7.899081739155E+00 -8.280814869152E+00
 -8.665314517574E+00 -9.052104661826E+00 -9.440690216162E+00 -9.830558429669E+00
 -1.022118038461E+01 -1.061201257878E+01 -1.100249857392E+01 -1.139207069069E+01
 -1.178015172989E+01 -1.216615669841E+01 -1.254949451856E+01 -1.292956969895E+01
 -1.330578394564E+01 -1.367753769318E+01 -1.404423153613E+01 -1.440526754327E+01
 -1.476005043873E+01 -1.510798863635E+01 -1.544849511617E+01 -1.561577944513E+01
 -1.578098813506E+01 -1.594404938107E+01 -1.610489176601E+01 -1.626344426791E+01
 -1.641963626470E+01 -1.657339753640E+01 -1.672465826469E+01 -1.687334903011E+01
 -1.701940080683E+01 -1.716274495516E+01 -1.730331321200E+01 -1.744103767925E+01
 -1.757585081040E+01 -1.770768539549E+01 -1.783647454457E+01 -1.796215167000E+01
 -1.808465046764E+01 -1.820390489730E+01 -1.831984916268E+01 -1.843241769113E+01
 -1.854154511337E+01 -1.864716624370E+01 -1.874921606094E+01 -1.884762969036E+01
 -1.894234238722E+01 -1.903328952210E+01 -1.912040656849E+01 -1.920362909319E+01
 -1.928289274986E+01 -1.935813327622E+01 -1.942928649550E+01 -1.949628832247E+01
 -1.955907477489E+01 -1.961758199058E+01 -1.967174625098E+01 -1.972150401173E+01
 -1.976679194075E+01 -1.980754696464E+01 -1.984370632388E+01 -1.987520763767E+01
 -1.990198897883E+01 -1.992398895961E+01 -1.994114682907E+01 -1.995340258255E+01
 -1.996069708402E+01 -1.996297220197E+01 -1.996017095934E+01 -1.995223769823E+01
 -1.993911825995E+01 -1.992076018097E+01 -1.989711290522E+01 -1.986812801342E+01
 -1.983375946970E+01 -1.979396388606E+01 -1.974870080494E+01 -1.969793300030E+01
 -1.964162679736E+01 -1.957975241141E+01 -1.951228430559E+01 -1.943920156794E+01
 -1.936048830781E+01 -1.927613407144E+01 -1.918613427696E+01 -1.909049066861E+01
 -1.898921179017E+01 -1.888231347775E+01 -1.876981937179E+01 -1.865176144850E+01
 -1.852818057120E+01 -1.839912706193E+01 -1.826466129443E+01 -1.812485430976E+01
 -1.797978845683E+01 -1.782955806053E+01 -1.767427012171E+01 -1.751404505431E+01
 -1.734901746704E+01 -1.717933699884E+01 -1.700516922036E+01 -1.682669661661E+01
 -1.664411966996E+01 -1.645765806676E+01 -1.626755205610E+01 -1.607406399461E+01
 -1.587748011733E+01 -1.567811258107E+01 -1.547630183325E+01 -1.527241936535E+01
 -1.506687091582E+01 -1.486010019122E+01 -1.465259317647E+01 -1.444488310349E+01
 -1.423755614144E+01 -1.403125785967E+01 -1.382670049678E+01 -1.362467104181E+01