<?xml version="1.0" encoding="UTF-8" ?>
<psml version="1.1" energy_unit="hartree" length_unit="bohr"
 uuid="a0534f80-539f-11e8-7dda-f56cfb7f9790"
 xmlns="http://esl.cecam.org/PSML/ns/1.1">
<provenance creator="ONCVPSP-3.3.0+psml-3.3.0-73 (fully-relativistic)"
 date="2018-05-09">
<annotation action="semilocal-pseudopotential-generation"
 action-cont="projectors-generation" />
<input-file name="oncvpsp-input">
<![CDATA[# atsym z nc nv iexc psfile
Hf 72 10 4 -116133 upf
# n l f
1 0 2.0
2 0 2.0
2 1 6.0
3 0 2.0
3 1 6.0
3 2 10.0
4 0 2.0
4 1 6.0
4 2 10.0
4 3 14.0
5 0 2.0
5 1 6.0
5 2 2.0
6 0 2.0
# lmax
3
# l rc ep ncon nbas qcut
0 1.7 0.0 4 8 7.0
1 1.7 0.0 4 8 7.4
2 1.7 0.0 4 9 6.6
3 2.4 0.5 4 8 6.8
# lloc lpopt rc5 dvloc0
4 5 1.7 0.0
# l nproj debl
0 2 2.0
1 2 1.5
2 2 1.8
3 2 2.5
# icmod fcfact rcfact
3 5.4 1.36
# epsh1 epsh2 depsh
-12.0 12.0 0.02
# rlmax drl
6.0 0.01
 0
]]>
</input-file>
</provenance>
<pseudo-atom-spec atomic-label="Hf" atomic-number="72" z-pseudo="12"
 flavor="Hamann&apos;s oncvpsp" relativity="dirac" spin-dft="no"
 core-corrections="yes">
<annotation pseudo-energy="-49.9350454086" />
<exchange-correlation>
<annotation oncvpsp-xc-code="-116133" oncvpsp-xc-type="libxc-interface" />
<libxc-info number-of-functionals="2">
<functional name="Perdew, Burke &amp; Ernzerhof SOL (GGA)" type="exchange"
 id="116" />
<functional name="Perdew, Burke &amp; Ernzerhof SOL (GGA)" type="correlation"
 id="133" />
</libxc-info>
</exchange-correlation>
<valence-configuration total-valence-charge="12">
<shell n="5" l="s" occupation="2" />
<shell n="5" l="p" occupation="6" />
<shell n="5" l="d" occupation="2" />
<shell n="6" l="s" occupation="2" />
</valence-configuration>
</pseudo-atom-spec>
<grid npts="457">
<annotation type="sampled from oncvpsp log grid"
 recipe="r(i:1..N) = r1*exp(a*(i-1)) + r=0; resampled"
 recipe-cont="r1: scale; a: step" scale="0.694444444444E-05"
 step="0.119285708653E-01" delta="0.500000000000E-02" rmax="44.0200392416" />
<grid-data>
  0.000000000000E+00  5.026670407229E-03  1.004037965951E-02  1.506217053265E-02
  2.029552887432E-02  2.545834165589E-02  3.081188800123E-02  3.598031598865E-02
  4.102519090483E-02  4.622274527913E-02  5.146125203343E-02  5.661407921772E-02
  6.228286019135E-02  6.770677621320E-02  7.273027184416E-02  7.812648509314E-02
  8.392306969631E-02  8.908076201112E-02  9.455543260272E-02  1.003665621267E-01
  1.065348284690E-01  1.117412849051E-01  1.172021857236E-01  1.229299658586E-01
  1.289376679513E-01  1.352389720489E-01  1.418482267551E-01  1.470162864660E-01
  1.523726378587E-01  1.579241411011E-01  1.636779063026E-01  1.696413026204E-01
  1.758219676977E-01  1.822278174452E-01  1.888670561800E-01  1.957481871331E-01
  2.028800233396E-01  2.102716989265E-01  2.153484988254E-01  2.205478729811E-01
  2.258727808263E-01  2.313262532466E-01  2.369113943050E-01  2.426313830091E-01
  2.484894751204E-01  2.544890050078E-01  2.606333875447E-01  2.669261200535E-01
  2.733707842961E-01  2.799710485122E-01  2.867306695074E-01  2.936534947920E-01
  3.007434647703E-01  3.080046149837E-01  3.154410784079E-01  3.230570878049E-01
  3.308569781329E-01  3.388451890129E-01  3.470262672565E-01  3.554048694531E-01
  3.639857646212E-01  3.727738369222E-01  3.817740884408E-01  3.909916420322E-01
  4.004317442374E-01  4.100997682703E-01  4.200012170754E-01  4.250412316803E-01
  4.301417264604E-01  4.353034271780E-01  4.405270683041E-01  4.458133931238E-01
  4.511631538412E-01  4.565771116873E-01  4.620560370276E-01  4.676007094719E-01
  4.732119179856E-01  4.788904610014E-01  4.846371465334E-01  4.904527922918E-01
  4.963382257993E-01  5.022942845089E-01  5.083218159230E-01  5.144216777141E-01
  5.205947378467E-01  5.268418747008E-01  5.331639771972E-01  5.395619449236E-01
  5.460366882627E-01  5.525891285218E-01  5.592201980641E-01  5.659308404409E-01
  5.727220105262E-01  5.795946746525E-01  5.865498107483E-01  5.935884084773E-01
  6.007114693790E-01  6.079200070116E-01  6.152150470957E-01  6.225976276608E-01
  6.300687991928E-01  6.376296247831E-01  6.452811802805E-01  6.530245544439E-01
  6.608608490972E-01  6.687911792863E-01  6.768166734378E-01  6.849384735190E-01
  6.931577352013E-01  7.014756280237E-01  7.098933355600E-01  7.184120555867E-01
  7.270330002537E-01  7.357573962568E-01  7.445864850118E-01  7.535215228320E-01
  7.625637811060E-01  7.717145464792E-01  7.809751210370E-01  7.903468224894E-01
  7.998309843593E-01  8.094289561716E-01  8.191421036457E-01  8.289718088894E-01
  8.389194705961E-01  8.489865042433E-01  8.591743422942E-01  8.694844344017E-01
  8.799182476145E-01  8.904772665859E-01  9.011629937849E-01  9.119769497104E-01
  9.229206731069E-01  9.339957211842E-01  9.452036698384E-01  9.565461138764E-01
  9.680246672429E-01  9.796409632499E-01  9.913966548089E-01  1.003293414667E+00
  1.015332935643E+00  1.027516930870E+00  1.039847134041E+00  1.052325299649E+00
  1.064953203245E+00  1.077732641684E+00  1.090665433384E+00  1.103753418585E+00
  1.116998459608E+00  1.130402441123E+00  1.143967270417E+00  1.157694877662E+00
  1.171587216193E+00  1.185646262788E+00  1.199874017941E+00  1.214272506157E+00
  1.228843776230E+00  1.243589901545E+00  1.258512980364E+00  1.273615136128E+00
  1.288898517762E+00  1.304365299975E+00  1.320017683574E+00  1.335857895777E+00
  1.351888190527E+00  1.368110848813E+00  1.384528178999E+00  1.401142517147E+00
  1.417956227353E+00  1.434971702081E+00  1.452191362506E+00  1.469617658856E+00
  1.487253070762E+00  1.505100107611E+00  1.523161308903E+00  1.541439244609E+00
  1.559936515545E+00  1.578655753731E+00  1.597599622776E+00  1.616770818249E+00
  1.636172068068E+00  1.655806132885E+00  1.675675806480E+00  1.695783916157E+00
  1.716133323151E+00  1.736726923029E+00  1.757567646106E+00  1.778658457859E+00
  1.800002359353E+00  1.821602387665E+00  1.843461616317E+00  1.865583155713E+00
  1.887970153582E+00  1.910625795425E+00  1.933553304970E+00  1.956755944629E+00
  1.980237015965E+00  2.003999860157E+00  2.028047858478E+00  2.052384432780E+00
  2.077013045974E+00  2.101937202525E+00  2.127160448956E+00  2.152686374343E+00
  2.178518610835E+00  2.204660834165E+00  2.231116764175E+00  2.257890165345E+00
  2.284984847329E+00  2.312404665497E+00  2.340153521483E+00  2.368235363741E+00
  2.396654188106E+00  2.425414038363E+00  2.454519006824E+00  2.483973234905E+00
  2.513780913724E+00  2.543946284689E+00  2.574473640105E+00  2.605367323787E+00
  2.636631731672E+00  2.668271312452E+00  2.700290568202E+00  2.732694055020E+00
  2.765486383680E+00  2.798672220284E+00  2.832256286928E+00  2.866243362371E+00
  2.900638282719E+00  2.935445942112E+00  2.970671293417E+00  3.006319348938E+00
  3.042395181126E+00  3.078903923299E+00  3.115850770379E+00  3.153240979623E+00
  3.191079871379E+00  3.229372829835E+00  3.268125303793E+00  3.307342807439E+00
  3.347030921128E+00  3.387195292182E+00  3.427841635688E+00  3.468975735316E+00
  3.510603444140E+00  3.552730685469E+00  3.595363453695E+00  3.638507815139E+00
  3.682169908921E+00  3.726355947828E+00  3.771072219202E+00  3.816325085833E+00
  3.862120986863E+00  3.908466438705E+00  3.955368035969E+00  4.002832452401E+00
  4.050866441830E+00  4.099476839132E+00  4.148670561201E+00  4.198454607936E+00
  4.248836063231E+00  4.299822095990E+00  4.351419961142E+00  4.403637000675E+00
  4.456480644683E+00  4.509958412420E+00  4.564077913369E+00  4.618846848329E+00
  4.674273010509E+00  4.730364286635E+00  4.787128658075E+00  4.844574201972E+00
  4.902709092395E+00  4.961541601504E+00  5.021080100722E+00  5.081333061931E+00
  5.142309058674E+00  5.204016767378E+00  5.266464968587E+00  5.329662548210E+00
  5.393618498788E+00  5.458341920774E+00  5.523842023823E+00  5.590128128109E+00
  5.657209665646E+00  5.725096181634E+00  5.793797335813E+00  5.863322903843E+00
  5.933682778689E+00  6.004886972034E+00  6.076945615698E+00  6.149868963086E+00
  6.223667390643E+00  6.298351399331E+00  6.373931616123E+00  6.450418795517E+00
  6.527823821063E+00  6.606157706915E+00  6.685431599398E+00  6.765656778591E+00
  6.846844659934E+00  6.929006795854E+00  7.012154877404E+00  7.096300735933E+00
  7.181456344764E+00  7.267633820901E+00  7.354845426752E+00  7.443103571873E+00
  7.532420814735E+00  7.622809864512E+00  7.714283582886E+00  7.806854985881E+00
  7.900537245711E+00  7.995343692660E+00  8.091287816972E+00  8.188383270776E+00
  8.286643870025E+00  8.386083596465E+00  8.486716599623E+00  8.588557198818E+00
  8.691619885204E+00  8.795919323827E+00  8.901470355712E+00  9.008287999981E+00
  9.116387455981E+00  9.225784105453E+00  9.336493514718E+00  9.448531436895E+00
  9.561913814137E+00  9.676656779907E+00  9.792776661266E+00  9.910289981201E+00
  1.002921346098E+01  1.014956402251E+01  1.027135879078E+01  1.039461509627E+01
  1.051935047742E+01  1.064558268315E+01  1.077332967535E+01  1.090260963145E+01
  1.103344094703E+01  1.116584223839E+01  1.129983234526E+01  1.143543033340E+01
  1.157265549740E+01  1.171152736337E+01  1.185206569173E+01  1.199429048003E+01
  1.213822196579E+01  1.228388062938E+01  1.243128719693E+01  1.258046264329E+01
  1.273142819501E+01  1.288420533335E+01  1.303881579735E+01  1.319528158692E+01
  1.335362496597E+01  1.351386846556E+01  1.367603488714E+01  1.384014730579E+01
  1.400622907346E+01  1.417430382234E+01  1.434439546821E+01  1.451652821383E+01
  1.469072655239E+01  1.486701527102E+01  1.504541945427E+01  1.522596448773E+01
  1.540867606158E+01  1.559358017432E+01  1.578070313641E+01  1.597007157405E+01
  1.616171243293E+01  1.635565298213E+01  1.655192081792E+01  1.675054386773E+01
  1.695155039414E+01  1.715496899887E+01  1.736082862686E+01  1.756915857038E+01
  1.777998847323E+01  1.799334833491E+01  1.820926851492E+01  1.842777973710E+01
  1.864891309395E+01  1.887270005108E+01  1.909917245169E+01  1.932836252111E+01
  1.956030287136E+01  1.979502650582E+01  2.003256682389E+01  2.027295762577E+01
  2.051623311728E+01  2.076242791469E+01  2.101157704967E+01  2.126371597426E+01
  2.151888056596E+01  2.177710713275E+01  2.203843241834E+01  2.230289360736E+01
  2.257052833065E+01  2.284137467062E+01  2.311547116666E+01  2.339285682066E+01
  2.367357110251E+01  2.395765395574E+01  2.424514580321E+01  2.453608755285E+01
  2.483052060348E+01  2.512848685072E+01  2.543002869293E+01  2.573518903725E+01
  2.604401130570E+01  2.635653944136E+01  2.667281791466E+01  2.699289172964E+01
  2.731680643039E+01  2.764460810756E+01  2.797634340485E+01  2.831205952571E+01
  2.865180424001E+01  2.899562589089E+01  2.934357340158E+01  2.969569628240E+01
  3.005204463779E+01  3.041266917345E+01  3.077762120353E+01  3.114695265797E+01
  3.152071608987E+01  3.189896468294E+01  3.228175225914E+01  3.266913328625E+01
  3.306116288568E+01  3.345789684031E+01  3.385939160240E+01  3.426570430162E+01
  3.467689275324E+01  3.509301546628E+01  3.551413165188E+01  3.594030123170E+01
  3.637158484648E+01  3.680804386464E+01  3.724974039101E+01  3.769673727571E+01
  3.814909812302E+01  3.860688730049E+01  3.907016994810E+01  3.953901198747E+01
  4.001348013132E+01  4.049364189290E+01  4.097956559561E+01  4.147132038276E+01
  4.196897622736E+01  4.247260394208E+01  4.298227518939E+01  4.349806249166E+01
  4.402003924156E+01
</grid-data>
</grid>
<valence-charge total-charge="12" is-unscreening-charge="yes"
 rescaled-to-z-pseudo="no">
<radfunc>
<data npts="457">
  1.297909519398E+00  1.298417059796E+00  1.299934381797E+00  1.302466189498E+00
  1.306182081789E+00  1.310924910820E+00  1.316972010108E+00  1.323899801290E+00
  1.331693619629E+00  1.340788137812E+00  1.351046563032E+00  1.362205591415E+00
  1.375704170626E+00  1.389816346963E+00  1.403928622025E+00  1.420202004633E+00
  1.438965430778E+00  1.456775012503E+00  1.476824048002E+00  1.499391530021E+00
  1.524790447124E+00  1.547382634706E+00  1.572209594941E+00  1.599489009600E+00
  1.629458971777E+00  1.662379704930E+00  1.698535375355E+00  1.727960516450E+00
  1.759520070627E+00  1.793364261920E+00  1.829653063935E+00  1.868556676309E+00
  1.910255991627E+00  1.954943043791E+00  2.002821426631E+00  2.054106668898E+00
  2.109026548666E+00  2.167821326393E+00  2.209294920107E+00  2.252680857767E+00
  2.298059652112E+00  2.345514251336E+00  2.395129981751E+00  2.446994466949E+00
  2.501197519985E+00  2.557831004685E+00  2.616988661732E+00  2.678765894715E+00
  2.743259510783E+00  2.810567410013E+00  2.880788216964E+00  2.954020847294E+00
  3.030364001604E+00  3.109915578018E+00  3.192771994269E+00  3.279027409322E+00
  3.368772833901E+00  3.462095118516E+00  3.559075807009E+00  3.659789843021E+00
  3.764304116353E+00  3.872675835867E+00  3.984950715515E+00  4.101160960253E+00
  4.221323039104E+00  4.345435233661E+00  4.473474951747E+00  4.538954148591E+00
  4.605395798156E+00  4.672789860528E+00  4.741124397268E+00  4.810385458500E+00
  4.880556966202E+00  4.951620593774E+00  5.023555642023E+00  5.096338911680E+00
  5.169944572664E+00  5.244344030291E+00  5.319505788705E+00  5.395395311830E+00
  5.471974882212E+00  5.549203458150E+00  5.627036529594E+00  5.705425973330E+00
  5.784319908051E+00  5.863662549969E+00  5.943394069712E+00  6.023450451305E+00
  6.103763354135E+00  6.184259978868E+00  6.264862938375E+00  6.345490134830E+00
  6.426054644202E+00  6.506464609491E+00  6.586623144127E+00  6.666428247056E+00
  6.745772731138E+00  6.824544166548E+00  6.902624840999E+00  6.979891738656E+00
  7.056216539713E+00  7.131465642658E+00  7.205500211341E+00  7.278176248973E+00
  7.349344701274E+00  7.418851590962E+00  7.486538185808E+00  7.552241202477E+00
  7.615793048304E+00  7.677022103127E+00  7.735753043189E+00  7.791807209004E+00
  7.845003018933E+00  7.895156430007E+00  7.942081447331E+00  7.985590683119E+00
  8.025495966076E+00  8.061609001535E+00  8.093742082302E+00  8.121708849746E+00
  8.145325104171E+00  8.164409662944E+00  8.178785264309E+00  8.188279514164E+00
  8.192725872413E+00  8.191964674847E+00  8.185844185748E+00  8.174221675686E+00
  8.156964518247E+00  8.133951298655E+00  8.105072926519E+00  8.070233744224E+00
  8.029352621808E+00  7.982364028513E+00  7.929219070657E+00  7.869886484989E+00
  7.804353576268E+00  7.732627087583E+00  7.654733991734E+00  7.570722192015E+00
  7.480661120895E+00  7.384642225365E+00  7.282779328259E+00  7.175208855473E+00
  7.062089919879E+00  6.943604253752E+00  6.819955982695E+00  6.691371235436E+00
  6.558097585352E+00  6.420403321193E+00  6.278576546249E+00  6.132924106953E+00
  5.983770353810E+00  5.831455739403E+00  5.676335260051E+00  5.518776749537E+00
  5.359159035011E+00  5.197869966816E+00  5.035304335458E+00  4.871861690300E+00
  4.707944075745E+00  4.543953701723E+00  4.380290566188E+00  4.217350048088E+00
  4.055520489926E+00  3.895180789607E+00  3.736698021740E+00  3.580425109071E+00
  3.426698565178E+00  3.275836330013E+00  3.128135720384E+00  2.983871517918E+00
  2.843294217459E+00  2.706628459230E+00  2.574071668168E+00  2.445792923784E+00
  2.321932083346E+00  2.202599180204E+00  2.087874117456E+00  1.977806674766E+00
  1.872416843064E+00  1.771695497785E+00  1.675605416499E+00  1.584082641088E+00
  1.497038178266E+00  1.414360935697E+00  1.335924506315E+00  1.261596023760E+00
  1.191237400872E+00  1.124706430781E+00  1.061857853513E+00  1.002544336733E+00
  9.466173864587E-01  8.939281870664E-01  8.443283708855E-01  7.976707183261E-01
  7.538097898838E-01  7.126024917435E-01  6.739085770499E-01  6.375910852174E-01
  6.035167219202E-01  5.715561826260E-01  5.415844227269E-01  5.134808774671E-01
  4.871296349712E-01  4.624195657464E-01  4.392444120520E-01  4.175028405156E-01
  3.970984613202E-01  3.779398171947E-01  3.599403453175E-01  3.430183150962E-01
  3.270967446180E-01  3.121032983903E-01  2.979701688119E-01  2.846339436400E-01
  2.720354615560E-01  2.601196577844E-01  2.488354015843E-01  2.381353273171E-01
  2.279756606848E-01  2.183160416349E-01  2.091193453488E-01  2.003515026011E-01
  1.919813207235E-01  1.839803062766E-01  1.763224904650E-01  1.689842581463E-01
  1.619441812762E-01  1.551828574443E-01  1.486827540749E-01  1.424280587587E-01
  1.364045360790E-01  1.305993912059E-01  1.250011404452E-01  1.195994888520E-01
  1.143852149527E-01  1.093500625572E-01  1.044866395925E-01  9.978832384376E-02
  9.524917545198E-02  9.086385598450E-02  8.662755386988E-02  8.253591596645E-02
  7.858498501719E-02  7.477114273065E-02  7.109105821727E-02  6.754164150411E-02
  6.412000184622E-02  6.082341055104E-02  5.764926803209E-02  5.459507481012E-02
  5.165840618318E-02  4.883689029247E-02  4.612818931679E-02  4.352998353691E-02
  4.103995802004E-02  3.865579168530E-02  3.637514852307E-02  3.419567075390E-02
  3.211497372729E-02  3.013064237515E-02  2.824022905096E-02  2.644125259399E-02
  2.473119852252E-02  2.310752015206E-02  2.156764061382E-02  2.010895563948E-02
  1.872883703620E-02  1.742463677707E-02  1.619369163704E-02  1.503332830761E-02
  1.394086892315E-02  1.291363693029E-02  1.194896322796E-02  1.104419250169E-02
  1.019668967167E-02  9.403846370520E-03  8.663087365185E-03  7.971876837289E-03
  7.327724438819E-03  6.728191044743E-03  6.170894131147E-03  5.653512716383E-03
  5.173791813165E-03  4.729546350975E-03  4.318664540103E-03  3.939110660630E-03
  3.588927271162E-03  3.266236842930E-03  2.969242834436E-03  2.696230230274E-03
  2.445565574664E-03  2.215696535784E-03  2.005151041094E-03  1.812536026604E-03
  1.636535844565E-03  1.475910374518E-03  1.329492881962E-03  1.196187667909E-03
  1.074967550759E-03  9.648712141886E-04  8.650004763929E-04  7.745174745914E-04
  6.926417907089E-04  6.186477674463E-04  5.518615758876E-04  4.916581783026E-04
  4.374588928777E-04  3.887288380135E-04  3.449741205289E-04  3.057393147349E-04
  2.706050970904E-04  2.391859271906E-04  2.111278230336E-04  1.861062394539E-04
  1.638240472189E-04  1.440096124100E-04  1.264149747687E-04  1.108141231165E-04
  9.700136552679E-05  8.478979160805E-05  7.400982404132E-05  6.450785636578E-05
  5.614497391965E-05  4.879575479597E-05  4.234714765682E-05  3.669742325274E-05
  3.175519651165E-05  2.743851608660E-05  2.367401828216E-05  2.039614231306E-05
  1.754640388466E-05  1.507272412380E-05  1.292881093032E-05  1.107358986511E-05
  9.470681741073E-06  8.087924138660E-06  6.896934129896E-06  5.872709562352E-06
  4.993266329536E-06  4.239309135059E-06  3.593933345177E-06  3.042355617065E-06
  2.571671087869E-06  2.170635011328E-06  1.829466833730E-06  1.539674808136E-06
  1.293899354317E-06  1.085773480630E-06  9.097986923437E-07  7.612349177769E-07
  6.360030883013E-07  5.305991101441E-07  4.420180643689E-07  3.676875659724E-07
  3.054093033065E-07  2.533078647265E-07  2.097860402646E-07  1.734858621110E-07
  1.432547186946E-07  1.181159431994E-07  9.724333850332E-08  7.993915688921E-08
  6.561510461768E-08  5.377598874296E-08  4.400566661598E-08  3.595499757688E-08
  2.933153163492E-08  2.389070171512E-08  1.942831456705E-08  1.577416093177E-08
  1.278658829058E-08  1.034789971080E-08  8.360460186213E-09  6.743407658312E-09
  5.429879803085E-09  4.364679867141E-09  3.502315514221E-09  2.805353962163E-09
  2.243044802181E-09  1.790168934463E-09  1.426078151865E-09  1.133895170178E-09
  8.998484411142E-10  7.127199842393E-10  5.633878183263E-10  4.444474335182E-10
  3.498991877090E-10  2.748905903353E-10  2.155042042715E-10  1.685833954362E-10
  1.315894282378E-10  1.024844763399E-10  7.963602126257E-11  6.173887100571E-11
  4.775166871254E-11  3.684529591224E-11  2.836102198297E-11  2.177662476186E-11
  1.667901831126E-11  1.274218262027E-11  9.709404881422E-12  7.379020058498E-12
  5.592985780140E-12  4.227748242728E-12  3.186956069697E-12  2.395661561877E-12
  1.795716495303E-12  1.342125123703E-12  1.000162452977E-12  7.431030003549E-13
  5.504345413531E-13  3.632764921842E-13  2.680414227448E-13  1.971379271806E-13
  1.445139379336E-13  5.503552993004E-16  3.575195315910E-16  2.311171366593E-16
  1.486670788242E-16  9.515288715570E-17  6.059370952393E-17  3.838885047836E-17
  2.419512888419E-17  1.516942019164E-17  9.460211565099E-18  5.868077317248E-18
  3.620144171206E-18  2.221071689420E-18  1.355118343617E-18  8.221304409449E-19
  4.959337438573E-19  2.974378454589E-19  1.773488119258E-19  1.051209598225E-19
  6.193675501986E-20  3.627224370859E-20  2.111230267514E-20  1.221237079083E-20
  7.019968349726E-21  4.009667185281E-21  2.275549606653E-21  1.283026137284E-21
  7.186574176605E-22  3.998629040985E-22  2.209877863152E-22  1.212992461233E-22
  6.612183181333E-23  3.579252878696E-23  1.923817558982E-23  1.026648779188E-23
  5.439128658024E-24  0.000000000000E+00  0.000000000000E+00  0.000000000000E+00
  0.000000000000E+00
</data>
</radfunc>
</valence-charge>
<pseudocore-charge matching-radius="1.02751693087"
 number-of-continuous-derivatives="4">
<annotation model-charge-form="Teter function with specified parameters" />
<radfunc>
<data npts="290">
  4.069539442703E+01  4.069373079772E+01  4.068875743707E+01  4.068045945071E+01
  4.066828194428E+01  4.065274128241E+01  4.063293063294E+01  4.061023982291E+01
  4.058471889108E+01  4.055494733759E+01  4.052137662100E+01  4.048487180426E+01
  4.044073170662E+01  4.039460624254E+01  4.034850182747E+01  4.029536342498E+01
  4.023412874464E+01  4.017604085779E+01  4.011068779901E+01  4.003717430910E+01
  3.995449841729E+01  3.988101214949E+01  3.980031389057E+01  3.971171193163E+01
  3.961445159779E+01  3.950771023308E+01  3.939059194314E+01  3.929536020032E+01
  3.919330291457E+01  3.908394999188E+01  3.896680190011E+01  3.884132828669E+01
  3.870696660894E+01  3.856312079368E+01  3.840915994608E+01  3.824441713150E+01
  3.806818825792E+01  3.787973109170E+01  3.774691533567E+01  3.760807719017E+01
  3.746296757392E+01  3.731132951209E+01  3.715289814166E+01  3.698740075085E+01
  3.681455685661E+01  3.663407832496E+01  3.644566953905E+01  3.624902762033E+01
  3.604384270858E+01  3.582979830688E+01  3.560657169827E+01  3.537383444103E+01
  3.513125294994E+01  3.487848917161E+01  3.461520136197E+01  3.434104497473E+01
  3.405567366985E+01  3.375874045139E+01  3.344989894452E+01  3.312880482146E+01
  3.279511738661E+01  3.244850133071E+01  3.208862866436E+01  3.171518084041E+01
  3.132785107487E+01  3.092634687507E+01  3.051039278303E+01  3.029691632990E+01
  3.007973334109E+01  2.985881553335E+01  2.963413628523E+01  2.940567074962E+01
  2.917339596985E+01  2.893729099951E+01  2.869733702577E+01  2.845351749644E+01
  2.820581825040E+01  2.795422765155E+01  2.769873672620E+01  2.743933930362E+01
  2.717603215987E+01  2.690881516455E+01  2.663769143050E+01  2.636266746613E+01
  2.608375333025E+01  2.580096278912E+01  2.551431347555E+01  2.522382704962E+01
  2.492952936086E+01  2.463145061139E+01  2.432962551982E+01  2.402409348533E+01
  2.371489875151E+01  2.340209056964E+01  2.308572336061E+01  2.276585687516E+01
  2.244255635172E+01  2.211589267120E+01  2.178594250807E+01  2.145278847705E+01
  2.111651927451E+01  2.077722981384E+01  2.043502135402E+01  2.009000162023E+01
  1.974228491580E+01  1.939199222441E+01  1.903925130148E+01  1.868419675363E+01
  1.832697010531E+01  1.796771985115E+01  1.760660149306E+01  1.724377756079E+01
  1.687941761470E+01  1.651369822948E+01  1.614680295750E+01  1.577892227066E+01
  1.541025347913E+01  1.504100062603E+01  1.467137435648E+01  1.430159175995E+01
  1.393187618452E+01  1.356245702196E+01  1.319356946241E+01  1.282545421759E+01
  1.245835721157E+01  1.209252923809E+01  1.172822558368E+01  1.136570561584E+01
  1.100523233578E+01  1.064707189519E+01  1.029149307696E+01  9.938766739602E+00
  9.589165225758E+00  9.242961734944E+00  8.900429661332E+00  8.561841897351E+00
  8.227470104329E+00  7.897583951608E+00  7.572450325940E+00  7.252332513254E+00
  6.937489355271E+00  6.628174383767E+00  6.324634935684E+00  6.027111252636E+00
  5.735835568764E+00  5.451031191266E+00  5.172911578312E+00  4.901679419421E+00
  4.637525723768E+00  4.380628922207E+00  4.131153989155E+00  3.889251590754E+00
  3.655057266035E+00  3.428690647989E+00  3.210254731692E+00  2.999835196710E+00
  2.797499791101E+00  2.603297784353E+00  2.417259496490E+00  2.239395910443E+00
  2.069698374555E+00  1.908138401735E+00  1.754667571356E+00  1.609217539452E+00
  1.471700162136E+00  1.342007736403E+00  1.220013361637E+00  1.105571424156E+00
  9.985182060850E-01  8.986726186625E-01  8.058370588296E-01  7.197983866088E-01
  6.403290193714E-01  5.671881376188E-01  5.001229954043E-01  4.388703269981E-01
  3.831578398804E-01  3.327057826644E-01  2.872285751210E-01  2.464364861340E-01
  2.100373441914E-01  1.777382639406E-01  1.492473714367E-01  1.242755100286E-01
  1.025379083793E-01  8.375579194039E-02  6.765791931455E-02  5.398202537115E-02
  4.247615373544E-02  3.289986237174E-02  2.502528741953E-02  1.863805221751E-02
  1.353801054966E-02  9.539815546515E-03  6.473308340666E-03  4.183723466900E-03
  2.531711061288E-03  1.393179089629E-03  6.589620544597E-04  2.343258152642E-04
  3.832122725603E-05  3.002175620044E-06  7.252616917019E-05  2.021578768962E-04
  3.571977648286E-04  5.118592494061E-04  6.481184690742E-04  7.545608449986E-04
  8.252480291646E-04  8.586276187478E-04  8.565061668568E-04  8.231035825324E-04
  7.642040521983E-04  6.864152187839E-04  5.965436330641E-04  5.010905723057E-04
  4.058683460378E-04  3.157333282952E-04  2.344283229187E-04  1.645236314652E-04
  1.074434876122E-04  6.356246324283E-05  3.235512805081E-05  1.258171137102E-05
  2.492788411671E-06  3.706801477762E-08  3.058128051619E-06  9.468319583125E-06
  1.739089797848E-05  2.526456551521E-05  3.190783377176E-05  3.654373630462E-05
  3.878824949633E-05  3.860813841052E-05  3.625569395744E-05  3.218887069444E-05
  2.698562696742E-05  2.126082436704E-05  1.559293328143E-05  1.046614090312E-05
  6.231436628054E-06  3.088056534912E-06  1.084515012831E-06  1.365416519073E-07
  5.775187994913E-08  5.979416756357E-07  1.483581487147E-06  2.455395665821E-06
  3.298785519864E-06  3.864158273732E-06  4.075784475937E-06  3.929419153141E-06
  3.480381452920E-06  2.824911910543E-06  2.078282248981E-06  1.353252824250E-06
  7.420669054247E-07  3.043238994756E-07  6.193379659306E-08  0.000000000000E+00
  0.000000000000E+00  0.000000000000E+00  0.000000000000E+00  0.000000000000E+00
  0.000000000000E+00  0.000000000000E+00  0.000000000000E+00  0.000000000000E+00
  0.000000000000E+00  0.000000000000E+00  0.000000000000E+00  0.000000000000E+00
  0.000000000000E+00  0.000000000000E+00  0.000000000000E+00  0.000000000000E+00
  0.000000000000E+00  0.000000000000E+00  0.000000000000E+00  0.000000000000E+00
  0.000000000000E+00  0.000000000000E+00  0.000000000000E+00  0.000000000000E+00
  0.000000000000E+00  0.000000000000E+00  0.000000000000E+00  0.000000000000E+00
  0.000000000000E+00  0.000000000000E+00
</data>
</radfunc>
</pseudocore-charge>
<semilocal-potentials set="lj">
<slps n="5" l="s" j="0.5" rc="1.71613332315" eref="-2.45808393506">
<radfunc>
<data npts="290">
 -2.926230688505E+00 -2.927518077535E+00 -2.931365532723E+00 -2.937781252746E+00
 -2.947188109296E+00 -2.959178481824E+00 -2.974439912553E+00 -2.991887910631E+00
 -3.011471139572E+00 -3.034261387380E+00 -3.059889563587E+00 -3.087673369878E+00
 -3.121151634084E+00 -3.155999842102E+00 -3.190694141729E+00 -3.230511461854E+00
 -3.276170881170E+00 -3.319263191098E+00 -3.367490124928E+00 -3.421418789328E+00
 -3.481667349498E+00 -3.534865487729E+00 -3.592904613980E+00 -3.656174457677E+00
 -3.725085999951E+00 -3.800070524499E+00 -3.881578115336E+00 -3.947269788256E+00
 -4.017095067734E+00 -4.091259576046E+00 -4.169971383629E+00 -4.253439778154E+00
 -4.341873830407E+00 -4.435480742367E+00 -4.534463964135E+00 -4.639021068260E+00
 -4.749341372566E+00 -4.865603305863E+00 -4.946494133951E+00 -5.030143951045E+00
 -5.116593716314E+00 -5.205880144343E+00 -5.298035222486E+00 -5.393085709820E+00
 -5.491052619388E+00 -5.591950685718E+00 -5.695787819949E+00 -5.802564555193E+00
 -5.912273485087E+00 -6.024898698795E+00 -6.140415216020E+00 -6.258788425842E+00
 -6.379973533457E+00 -6.503915019072E+00 -6.630546113394E+00 -6.759788294229E+00
 -6.891550808790E+00 -7.025730226268E+00 -7.162210025157E+00 -7.300860219656E+00
 -7.441537029260E+00 -7.584082595349E+00 -7.728324748219E+00 -7.874076827572E+00
 -8.021137559015E+00 -8.169290988586E+00 -8.318306476776E+00 -8.393061414579E+00
 -8.467938752970E+00 -8.542905565914E+00 -8.617928030651E+00 -8.692971434604E+00
 -8.768000183218E+00 -8.842977808713E+00 -8.917866979762E+00 -8.992629512055E+00
 -9.067226379759E+00 -9.141617727852E+00 -9.215762885316E+00 -9.289620379185E+00
 -9.363147949424E+00 -9.436302564641E+00 -9.509040438607E+00 -9.581317047584E+00
 -9.653087148453E+00 -9.724304797630E+00 -9.794923370776E+00 -9.864895583291E+00
 -9.934173511600E+00 -1.000270861524E+01 -1.007045175976E+01 -1.013735324040E+01
 -1.020336280670E+01 -1.026842968786E+01 -1.033250261906E+01 -1.039552986869E+01
 -1.045745926651E+01 -1.051823823285E+01 -1.057781380878E+01 -1.063613268750E+01
 -1.069314124671E+01 -1.074878558238E+01 -1.080301154359E+01 -1.085576476887E+01
 -1.090699072389E+01 -1.095663474053E+01 -1.100464205768E+01 -1.105095786344E+01
 -1.109552733915E+01 -1.113829570510E+01 -1.117920826802E+01 -1.121821047043E+01
 -1.125524794188E+01 -1.129026655212E+01 -1.132321246616E+01 -1.135403220125E+01
 -1.138267268587E+01 -1.140908132043E+01 -1.143320603992E+01 -1.145499537815E+01
 -1.147439853365E+01 -1.149136543697E+01 -1.150584681920E+01 -1.151779428157E+01
 -1.152716036575E+01 -1.153389862462E+01 -1.153796369323E+01 -1.153931135945E+01
 -1.153789863412E+01 -1.153368382007E+01 -1.152662657980E+01 -1.151668800126E+01
 -1.150383066144E+01 -1.148801868725E+01 -1.146921781356E+01 -1.144739543805E+01
 -1.142252067278E+01 -1.139456439248E+01 -1.136349927990E+01 -1.132929986847E+01
 -1.129194258321E+01 -1.125140578085E+01 -1.120766979073E+01 -1.116071695835E+01
 -1.111053169431E+01 -1.105710053150E+01 -1.100041219476E+01 -1.094045768746E+01
 -1.087723040068E+01 -1.081072625167E+01 -1.074094385916E+01 -1.066788476445E+01