<?xml version="1.0" encoding="UTF-8" ?>
<psml version="1.1" energy_unit="hartree" length_unit="bohr"
 uuid="e0533bd0-53b4-11e8-5400-3b42fffd3545"
 xmlns="http://esl.cecam.org/PSML/ns/1.1">
<provenance creator="ONCVPSP-3.3.0+psml-3.3.0-73 (fully-relativistic)"
 date="2018-05-09">
<annotation action="semilocal-pseudopotential-generation"
 action-cont="projectors-generation" />
<input-file name="oncvpsp-input">
<![CDATA[# atsym z nc nv iexc psfile
Hf 72 9 5 -116133 upf
# n l f
1 0 2.0
2 0 2.0
2 1 6.0
3 0 2.0
3 1 6.0
3 2 10.0
4 0 2.0
4 1 6.0
4 2 10.0
5 0 2.0
5 1 6.0
4 3 14.0
5 2 2.0
6 0 2.0
# lmax
3
# l rc ep ncon nbas qcut
0 1.55 0.0 4 8 7.5
1 1.6 0.0 4 8 8.0
2 1.4 0.0 4 8 9.2
3 1.6 0.0 4 8 11.4
# lloc lpopt rc5 dvloc0
4 5 1.3 0.0
# l nproj debl
0 2 1.0
1 2 1.0
2 2 1.0
3 2 1.5
# icmod fcfact
3 3 1.45
# epsh1 epsh2 depsh
-12.0 12.0 0.02
# rlmax drl
6.0 0.01
 0
]]>
</input-file>
</provenance>
<pseudo-atom-spec atomic-label="Hf" atomic-number="72" z-pseudo="26"
 flavor="Hamann&apos;s oncvpsp" relativity="dirac" spin-dft="no"
 core-corrections="yes">
<annotation pseudo-energy="-270.914207142" />
<exchange-correlation>
<annotation oncvpsp-xc-code="-116133" oncvpsp-xc-type="libxc-interface" />
<libxc-info number-of-functionals="2">
<functional name="Perdew, Burke &amp; Ernzerhof SOL (GGA)" type="exchange"
 id="116" />
<functional name="Perdew, Burke &amp; Ernzerhof SOL (GGA)" type="correlation"
 id="133" />
</libxc-info>
</exchange-correlation>
<valence-configuration total-valence-charge="26">
<shell n="5" l="s" occupation="2" />
<shell n="5" l="p" occupation="6" />
<shell n="4" l="f" occupation="14" />
<shell n="5" l="d" occupation="2" />
<shell n="6" l="s" occupation="2" />
</valence-configuration>
</pseudo-atom-spec>
<grid npts="457">
<annotation type="sampled from oncvpsp log grid"
 recipe="r(i:1..N) = r1*exp(a*(i-1)) + r=0; resampled"
 recipe-cont="r1: scale; a: step" scale="0.694444444444E-05"
 step="0.119285708653E-01" delta="0.500000000000E-02" rmax="44.0200392416" />
<grid-data>
  0.000000000000E+00  5.026670407229E-03  1.004037965951E-02  1.506217053265E-02
  2.029552887432E-02  2.545834165589E-02  3.081188800123E-02  3.598031598865E-02
  4.102519090483E-02  4.622274527913E-02  5.146125203343E-02  5.661407921772E-02
  6.228286019135E-02  6.770677621320E-02  7.273027184416E-02  7.812648509314E-02
  8.392306969631E-02  8.908076201112E-02  9.455543260272E-02  1.003665621267E-01
  1.065348284690E-01  1.117412849051E-01  1.172021857236E-01  1.229299658586E-01
  1.289376679513E-01  1.352389720489E-01  1.418482267551E-01  1.470162864660E-01
  1.523726378587E-01  1.579241411011E-01  1.636779063026E-01  1.696413026204E-01
  1.758219676977E-01  1.822278174452E-01  1.888670561800E-01  1.957481871331E-01
  2.028800233396E-01  2.102716989265E-01  2.153484988254E-01  2.205478729811E-01
  2.258727808263E-01  2.313262532466E-01  2.369113943050E-01  2.426313830091E-01
  2.484894751204E-01  2.544890050078E-01  2.606333875447E-01  2.669261200535E-01
  2.733707842961E-01  2.799710485122E-01  2.867306695074E-01  2.936534947920E-01
  3.007434647703E-01  3.080046149837E-01  3.154410784079E-01  3.230570878049E-01
  3.308569781329E-01  3.388451890129E-01  3.470262672565E-01  3.554048694531E-01
  3.639857646212E-01  3.727738369222E-01  3.817740884408E-01  3.909916420322E-01
  4.004317442374E-01  4.100997682703E-01  4.200012170754E-01  4.250412316803E-01
  4.301417264604E-01  4.353034271780E-01  4.405270683041E-01  4.458133931238E-01
  4.511631538412E-01  4.565771116873E-01  4.620560370276E-01  4.676007094719E-01
  4.732119179856E-01  4.788904610014E-01  4.846371465334E-01  4.904527922918E-01
  4.963382257993E-01  5.022942845089E-01  5.083218159230E-01  5.144216777141E-01
  5.205947378467E-01  5.268418747008E-01  5.331639771972E-01  5.395619449236E-01
  5.460366882627E-01  5.525891285218E-01  5.592201980641E-01  5.659308404409E-01
  5.727220105262E-01  5.795946746525E-01  5.865498107483E-01  5.935884084773E-01
  6.007114693790E-01  6.079200070116E-01  6.152150470957E-01  6.225976276608E-01
  6.300687991928E-01  6.376296247831E-01  6.452811802805E-01  6.530245544439E-01
  6.608608490972E-01  6.687911792863E-01  6.768166734378E-01  6.849384735190E-01
  6.931577352013E-01  7.014756280237E-01  7.098933355600E-01  7.184120555867E-01
  7.270330002537E-01  7.357573962568E-01  7.445864850118E-01  7.535215228320E-01
  7.625637811060E-01  7.717145464792E-01  7.809751210370E-01  7.903468224894E-01
  7.998309843593E-01  8.094289561716E-01  8.191421036457E-01  8.289718088894E-01
  8.389194705961E-01  8.489865042433E-01  8.591743422942E-01  8.694844344017E-01
  8.799182476145E-01  8.904772665859E-01  9.011629937849E-01  9.119769497104E-01
  9.229206731069E-01  9.339957211842E-01  9.452036698384E-01  9.565461138764E-01
  9.680246672429E-01  9.796409632499E-01  9.913966548089E-01  1.003293414667E+00
  1.015332935643E+00  1.027516930870E+00  1.039847134041E+00  1.052325299649E+00
  1.064953203245E+00  1.077732641684E+00  1.090665433384E+00  1.103753418585E+00
  1.116998459608E+00  1.130402441123E+00  1.143967270417E+00  1.157694877662E+00
  1.171587216193E+00  1.185646262788E+00  1.199874017941E+00  1.214272506157E+00
  1.228843776230E+00  1.243589901545E+00  1.258512980364E+00  1.273615136128E+00
  1.288898517762E+00  1.304365299975E+00  1.320017683574E+00  1.335857895777E+00
  1.351888190527E+00  1.368110848813E+00  1.384528178999E+00  1.401142517147E+00
  1.417956227353E+00  1.434971702081E+00  1.452191362506E+00  1.469617658856E+00
  1.487253070762E+00  1.505100107611E+00  1.523161308903E+00  1.541439244609E+00
  1.559936515545E+00  1.578655753731E+00  1.597599622776E+00  1.616770818249E+00
  1.636172068068E+00  1.655806132885E+00  1.675675806480E+00  1.695783916157E+00
  1.716133323151E+00  1.736726923029E+00  1.757567646106E+00  1.778658457859E+00
  1.800002359353E+00  1.821602387665E+00  1.843461616317E+00  1.865583155713E+00
  1.887970153582E+00  1.910625795425E+00  1.933553304970E+00  1.956755944629E+00
  1.980237015965E+00  2.003999860157E+00  2.028047858478E+00  2.052384432780E+00
  2.077013045974E+00  2.101937202525E+00  2.127160448956E+00  2.152686374343E+00
  2.178518610835E+00  2.204660834165E+00  2.231116764175E+00  2.257890165345E+00
  2.284984847329E+00  2.312404665497E+00  2.340153521483E+00  2.368235363741E+00
  2.396654188106E+00  2.425414038363E+00  2.454519006824E+00  2.483973234905E+00
  2.513780913724E+00  2.543946284689E+00  2.574473640105E+00  2.605367323787E+00
  2.636631731672E+00  2.668271312452E+00  2.700290568202E+00  2.732694055020E+00
  2.765486383680E+00  2.798672220284E+00  2.832256286928E+00  2.866243362371E+00
  2.900638282719E+00  2.935445942112E+00  2.970671293417E+00  3.006319348938E+00
  3.042395181126E+00  3.078903923299E+00  3.115850770379E+00  3.153240979623E+00
  3.191079871379E+00  3.229372829835E+00  3.268125303793E+00  3.307342807439E+00
  3.347030921128E+00  3.387195292182E+00  3.427841635688E+00  3.468975735316E+00
  3.510603444140E+00  3.552730685469E+00  3.595363453695E+00  3.638507815139E+00
  3.682169908921E+00  3.726355947828E+00  3.771072219202E+00  3.816325085833E+00
  3.862120986863E+00  3.908466438705E+00  3.955368035969E+00  4.002832452401E+00
  4.050866441830E+00  4.099476839132E+00  4.148670561201E+00  4.198454607936E+00
  4.248836063231E+00  4.299822095990E+00  4.351419961142E+00  4.403637000675E+00
  4.456480644683E+00  4.509958412420E+00  4.564077913369E+00  4.618846848329E+00
  4.674273010509E+00  4.730364286635E+00  4.787128658075E+00  4.844574201972E+00
  4.902709092395E+00  4.961541601504E+00  5.021080100722E+00  5.081333061931E+00
  5.142309058674E+00  5.204016767378E+00  5.266464968587E+00  5.329662548210E+00
  5.393618498788E+00  5.458341920774E+00  5.523842023823E+00  5.590128128109E+00
  5.657209665646E+00  5.725096181634E+00  5.793797335813E+00  5.863322903843E+00
  5.933682778689E+00  6.004886972034E+00  6.076945615698E+00  6.149868963086E+00
  6.223667390643E+00  6.298351399331E+00  6.373931616123E+00  6.450418795517E+00
  6.527823821063E+00  6.606157706915E+00  6.685431599398E+00  6.765656778591E+00
  6.846844659934E+00  6.929006795854E+00  7.012154877404E+00  7.096300735933E+00
  7.181456344764E+00  7.267633820901E+00  7.354845426752E+00  7.443103571873E+00
  7.532420814735E+00  7.622809864512E+00  7.714283582886E+00  7.806854985881E+00
  7.900537245711E+00  7.995343692660E+00  8.091287816972E+00  8.188383270776E+00
  8.286643870025E+00  8.386083596465E+00  8.486716599623E+00  8.588557198818E+00
  8.691619885204E+00  8.795919323827E+00  8.901470355712E+00  9.008287999981E+00
  9.116387455981E+00  9.225784105453E+00  9.336493514718E+00  9.448531436895E+00
  9.561913814137E+00  9.676656779907E+00  9.792776661266E+00  9.910289981201E+00
  1.002921346098E+01  1.014956402251E+01  1.027135879078E+01  1.039461509627E+01
  1.051935047742E+01  1.064558268315E+01  1.077332967535E+01  1.090260963145E+01
  1.103344094703E+01  1.116584223839E+01  1.129983234526E+01  1.143543033340E+01
  1.157265549740E+01  1.171152736337E+01  1.185206569173E+01  1.199429048003E+01
  1.213822196579E+01  1.228388062938E+01  1.243128719693E+01  1.258046264329E+01
  1.273142819501E+01  1.288420533335E+01  1.303881579735E+01  1.319528158692E+01
  1.335362496597E+01  1.351386846556E+01  1.367603488714E+01  1.384014730579E+01
  1.400622907346E+01  1.417430382234E+01  1.434439546821E+01  1.451652821383E+01
  1.469072655239E+01  1.486701527102E+01  1.504541945427E+01  1.522596448773E+01
  1.540867606158E+01  1.559358017432E+01  1.578070313641E+01  1.597007157405E+01
  1.616171243293E+01  1.635565298213E+01  1.655192081792E+01  1.675054386773E+01
  1.695155039414E+01  1.715496899887E+01  1.736082862686E+01  1.756915857038E+01
  1.777998847323E+01  1.799334833491E+01  1.820926851492E+01  1.842777973710E+01
  1.864891309395E+01  1.887270005108E+01  1.909917245169E+01  1.932836252111E+01
  1.956030287136E+01  1.979502650582E+01  2.003256682389E+01  2.027295762577E+01
  2.051623311728E+01  2.076242791469E+01  2.101157704967E+01  2.126371597426E+01
  2.151888056596E+01  2.177710713275E+01  2.203843241834E+01  2.230289360736E+01
  2.257052833065E+01  2.284137467062E+01  2.311547116666E+01  2.339285682066E+01
  2.367357110251E+01  2.395765395574E+01  2.424514580321E+01  2.453608755285E+01
  2.483052060348E+01  2.512848685072E+01  2.543002869293E+01  2.573518903725E+01
  2.604401130570E+01  2.635653944136E+01  2.667281791466E+01  2.699289172964E+01
  2.731680643039E+01  2.764460810756E+01  2.797634340485E+01  2.831205952571E+01
  2.865180424001E+01  2.899562589089E+01  2.934357340158E+01  2.969569628240E+01
  3.005204463779E+01  3.041266917345E+01  3.077762120353E+01  3.114695265797E+01
  3.152071608987E+01  3.189896468294E+01  3.228175225914E+01  3.266913328625E+01
  3.306116288568E+01  3.345789684031E+01  3.385939160240E+01  3.426570430162E+01
  3.467689275324E+01  3.509301546628E+01  3.551413165188E+01  3.594030123170E+01
  3.637158484648E+01  3.680804386464E+01  3.724974039101E+01  3.769673727571E+01
  3.814909812302E+01  3.860688730049E+01  3.907016994810E+01  3.953901198747E+01
  4.001348013132E+01  4.049364189290E+01  4.097956559561E+01  4.147132038276E+01
  4.196897622736E+01  4.247260394208E+01  4.298227518939E+01  4.349806249166E+01
  4.402003924156E+01
</grid-data>
</grid>
<valence-charge total-charge="26" is-unscreening-charge="yes"
 rescaled-to-z-pseudo="no">
<radfunc>
<data npts="457">
  1.969530774254E-01  1.972951356529E-01  1.983180365562E-01  2.000258770722E-01
  2.025349568519E-01  2.057422553019E-01  2.098403526165E-01  2.145490665033E-01
  2.198664511479E-01  2.261018325569E-01  2.331802289768E-01  2.409415913798E-01
  2.504274593705E-01  2.604732992569E-01  2.706670071186E-01  2.826263118035E-01
  2.967179972634E-01  3.104249143311E-01  3.262809375995E-01  3.447197615104E-01
  3.662930867228E-01  3.862783973370E-01  4.091762193726E-01  4.355516352450E-01
  4.661068936309E-01  5.017179929432E-01  5.434809514790E-01  5.796546504649E-01
  6.207602224589E-01  6.676349702123E-01  7.212726088833E-01  7.828521469871E-01
  8.537715441074E-01  9.356867193954E-01  1.030556475380E+00  1.140693855733E+00
  1.268824358497E+00  1.418151259104E+00  1.531306884128E+00  1.656802505167E+00
  1.796037519094E+00  1.950558146243E+00  2.122069264126E+00  2.312446390565E+00
  2.523747607370E+00  2.758225159760E+00  3.018336402063E+00  3.306753686345E+00
  3.626372707173E+00  3.980318722733E+00  4.371949970253E+00  4.804857483091E+00
  5.282860399491E+00  5.809995731180E+00  6.390501437247E+00  7.028791529690E+00
  7.729421827829E+00  8.497044887311E+00  9.336352565400E+00  1.025200465945E+01
  1.124854208393E+01  1.233028314909E+01  1.350120168997E+01  1.476478608697E+01
  1.612387864092E+01  1.758049533647E+01  1.913562676862E+01  1.995011179426E+01
  2.078902193553E+01  2.165209398584E+01  2.253895772801E+01  2.344912825628E+01
  2.438199827773E+01  2.533683045428E+01  2.631274985352E+01  2.730873658403E+01
  2.832361869838E+01  2.935606545468E+01  3.040458103489E+01  3.146749882533E+01
  3.254297637189E+01  3.362899112876E+01  3.472333712533E+01  3.582362268085E+01
  3.692726930023E+01  3.803151188722E+01  3.913340041198E+01  4.022980316994E+01
  4.131741176598E+01  4.239274795325E+01  4.345217244910E+01  4.449189584024E+01
  4.550799167689E+01  4.649641183956E+01  4.745300424315E+01  4.837353292030E+01
  4.925370049999E+01  5.008917306791E+01  5.087560736180E+01  5.160868021870E+01
  5.228412015151E+01  5.289774088963E+01  5.344547667361E+01  5.392341904696E+01
  5.432785484019E+01  5.465530499332E+01  5.490256381534E+01  5.506673823186E+01
  5.514528652846E+01  5.513605605665E+01  5.503731933419E+01  5.484780794317E+01
  5.456674360842E+01  5.419386582792E+01  5.372945542666E+01  5.317435341752E+01
  5.252997457815E+01  5.179831519291E+01  5.098195446392E+01  5.008404916635E+01
  4.910832120925E+01  4.805903786559E+01  4.694098455127E+01  4.575943016285E+01
  4.452008512454E+01  4.322905244470E+01  4.189277223785E+01  4.051796032555E+01
  3.911154168546E+01  3.768057966718E+01  3.623220203145E+01  3.477352499144E+01
  3.331157653545E+01  3.185322038545E+01  3.040508199027E+01  2.897347796281E+01
  2.756435034405E+01  2.618320701101E+01  2.483506944070E+01  2.352442889801E+01
  2.225521193470E+01  2.103075587333E+01  1.985379470922E+01  1.872645560230E+01
  1.765026585793E+01  1.662617001924E+01  1.565455642557E+01  1.473529234000E+01
  1.386776652572E+01  1.305093796465E+01  1.228338927048E+01  1.156338325864E+01
  1.088892110182E+01  1.025780052273E+01  9.667672555732E+00  9.116095539959E+00
  8.600585184006E+00  8.118659755382E+00  7.667879686547E+00  7.245881141005E+00
  6.850403334686E+00  6.479309647375E+00  6.130602774740E+00  5.802434354292E+00
  5.493109641387E+00  5.201087910097E+00  4.924979307240E+00  4.663538898636E+00
  4.415658444270E+00  4.180355979915E+00  3.956764086282E+00  3.744118967460E+00
  3.541750177821E+00  3.349070243182E+00  3.165564994942E+00  2.990784527054E+00
  2.824334856923E+00  2.665870548384E+00  2.515088989145E+00  2.371725706479E+00
  2.235545636647E+00  2.106326847680E+00  1.983843253934E+00  1.867862930375E+00
  1.758152134098E+00  1.654474943311E+00  1.556594472834E+00  1.464273795782E+00
  1.377276832013E+00  1.295369179179E+00  1.218318884127E+00  1.145897153507E+00
  1.077879002962E+00  1.014043844784E+00  9.541760144225E-01  8.980652366648E-01
  8.455070327174E-01  7.963030697840E-01  7.502614550690E-01  7.071969764336E-01
  6.669312921352E-01  6.292930724250E-01  5.941180957852E-01  5.612493028565E-01
  5.305368111467E-01  5.018378936856E-01  4.750169248007E-01  4.499452961708E-01
  4.265013062486E-01  4.045700260528E-01  3.840431441994E-01  3.648187938974E-01
  3.468013644649E-01  3.299012997515E-01  3.140348856776E-01  2.991240289353E-01
  2.850960287392E-01  2.718833433780E-01  2.594233531905E-01  2.476581214807E-01
  2.365341547871E-01  2.260021638264E-01  2.160168263557E-01  2.065365530754E-01
  1.975232576376E-01  1.889421317000E-01  1.807614258982E-01  1.729522374233E-01
  1.654883048900E-01  1.583458109901E-01  1.515031933554E-01  1.449409639422E-01
  1.386415371597E-01  1.325890668740E-01  1.267692923404E-01  1.211693930472E-01
  1.157778523909E-01  1.105843300501E-01  1.055795428794E-01  1.007551541062E-01
  9.610367058120E-02  9.161834780896E-02  8.729310246196E-02  8.312243206845E-02
  7.910134155026E-02  7.522527627970E-02  7.149006131895E-02  6.789184650283E-02
  6.442705702569E-02  6.109234919484E-02  5.788457101676E-02  5.480072728720E-02
  5.183794886357E-02  4.899346580554E-02  4.626458407941E-02  4.364866553246E-02
  4.114311085511E-02  3.874534526172E-02  3.645280663498E-02  3.426293589395E-02
  3.217316936196E-02  3.018093292731E-02  2.828363780737E-02  2.647867773646E-02
  2.476342746433E-02  2.313524234502E-02  2.159145897675E-02  2.012939674528E-02
  1.874636018216E-02  1.743964205165E-02  1.620652708591E-02  1.504429629188E-02
  1.395023175415E-02  1.292162185701E-02  1.195576684590E-02  1.104998464533E-02
  1.020161684626E-02  9.408034773806E-03  8.666645544125E-03  7.974898020627E-03
  7.330288581958E-03  6.730366619691E-03  6.172739690864E-03  5.655078259783E-03
  5.175119974223E-03  4.730673432879E-03  4.319621413114E-03  3.939923540261E-03
  3.589618391459E-03  3.266825037938E-03  2.969744039498E-03  2.696657913411E-03
  2.445931107120E-03  2.216009509737E-03  2.005419541555E-03  1.812766863694E-03
  1.636734751567E-03  1.476082176449E-03  1.329641638777E-03  1.196316795949E-03
  1.075079925548E-03  9.649692573007E-04  8.650862287189E-04  7.745926580370E-04
  6.927078600532E-04  6.187059538786E-04  5.519129234797E-04  4.917035745007E-04
  4.374990940029E-04  3.887644905505E-04  3.450057788516E-04  3.057674558621E-04
  2.706301329654E-04  2.392082148909E-04  2.111476732560E-04  1.861239235670E-04
  1.638398031272E-04  1.440236494324E-04  1.264274777035E-04  1.108252556341E-04
  9.701127300690E-05  8.479860352106E-05  7.401765595255E-05  6.451481163022E-05
  5.615114512147E-05  4.880122497777E-05  4.235199137523E-05  3.670170749043E-05
  3.175898147014E-05  2.744185587976E-05  2.367696154655E-05  2.039873274827E-05
  1.754868073418E-05  1.507472260526E-05  1.293056262196E-05  1.107512305439E-05
  9.472021739953E-06  8.089093569650E-06  6.897953185926E-06  5.873596243259E-06
  4.994036657430E-06  4.239977350535E-06  3.594512086071E-06  3.042856081244E-06
  2.572103181382E-06  2.171007483107E-06  1.829787397915E-06  1.539950255021E-06
  1.294135650815E-06  1.085975861102E-06  9.099717405785E-07  7.613826408402E-07
  6.361289829461E-07  5.307062224094E-07  4.421090429624E-07  3.677647099890E-07
  3.054746047978E-07  2.533630465987E-07  2.098325899476E-07  1.735250614099E-07
  1.432876702006E-07  1.181435936083E-07  9.726649916097E-08  7.995852185639E-08
  6.563126652028E-08  5.378945265043E-08  4.401686216800E-08  3.596428955731E-08
  2.933922917273E-08  2.389706627393E-08  1.943356686832E-08  1.577848694159E-08
  1.279014438576E-08  1.035081712761E-08  8.362848843302E-09  6.745359434964E-09
  5.431471344502E-09  4.365974979929E-09  3.503367207593E-09  2.806206183562E-09
  2.243733909911E-09  1.790724944475E-09  1.426525791062E-09  1.134254764313E-09
  9.001366616137E-10  7.129504749812E-10  5.635717204864E-10  4.445938240794E-10
  3.500154450005E-10  2.749826980470E-10  2.155770037132E-10  1.686407943635E-10
  1.316345733160E-10  1.025198952330E-10  7.966373942034E-11  6.176050741676E-11
  4.776851421867E-11  3.685837710045E-11  2.837115317941E-11  2.178445023520E-11
  1.668504644047E-11  1.274681348444E-11  9.712952478959E-12  7.381730153039E-12
  5.595050195156E-12  4.229316279920E-12  3.188143604551E-12  2.396558268467E-12
  1.796391568719E-12  1.342631799423E-12  1.000541565639E-12  7.433857779335E-13
  5.506447917291E-13  3.633480766105E-13  2.680949376388E-13  1.971778043236E-13
  1.445435544890E-13  5.504560206720E-16  3.575858841901E-16  2.311606334844E-16
  1.486954511682E-16  9.517130103660E-17  6.060559952782E-17  3.839648846675E-17
  2.420000989507E-17  1.517252294654E-17  9.462173410896E-18  5.869311087898E-18
  3.620915835292E-18  2.221551663970E-18  1.355415219989E-18  8.223130286958E-19
  4.960453985438E-19  2.975057286038E-19  1.773898414651E-19  1.051456117370E-19
  6.195147791647E-20  3.628098334491E-20  2.111745875291E-20  1.221539380155E-20
  7.021729602872E-21  4.010686792934E-21  2.276136069556E-21  1.283361265271E-21
  7.188476610936E-22  3.999701802497E-22  2.210478699936E-22  1.213326682831E-22
  6.614029478380E-23  3.580265673872E-23  1.924369201915E-23  1.026947093144E-23
  5.440730173496E-24  0.000000000000E+00  0.000000000000E+00  0.000000000000E+00
  0.000000000000E+00
</data>
</radfunc>
</valence-charge>
<pseudocore-charge matching-radius="0.653024554444"
 number-of-continuous-derivatives="4">
<annotation model-charge-form="Teter function with specified parameters" />
<radfunc>
<data npts="290">
  1.703279211816E+02  1.703127559825E+02  1.702674242375E+02  1.701918024282E+02
  1.700808563036E+02  1.699393225593E+02  1.697589872129E+02  1.695525530688E+02
  1.693205233592E+02  1.690500514961E+02  1.687453273290E+02  1.684142861804E+02
  1.680144449215E+02  1.675971337802E+02  1.671805385182E+02  1.667010364593E+02
  1.661493419290E+02  1.656268550024E+02  1.650400165007E+02  1.643811629142E+02
  1.636417885478E+02  1.629860156921E+02  1.622674226343E+02  1.614803035386E+02
  1.606184997633E+02  1.596753780294E+02  1.586438108924E+02  1.578075181747E+02
  1.569137748310E+02  1.559589994825E+02  1.549394436833E+02  1.538511932805E+02
  1.526901716666E+02  1.514521452688E+02  1.501327316587E+02  1.487274107133E+02
  1.472315392976E+02  1.456403699900E+02  1.445242653031E+02  1.433622162321E+02
  1.421527717916E+02  1.408944798649E+02  1.395858927401E+02  1.382255732829E+02
  1.368121017888E+02  1.353440835566E+02  1.338201572241E+02  1.322390039091E+02
  1.305993571910E+02  1.289000139723E+02  1.271398462502E+02  1.253178138256E+02
  1.234329779719E+02  1.214845160753E+02  1.194717372514E+02  1.173940989297E+02
  1.152512243855E+02  1.130429211820E+02  1.107692004683E+02  1.084302970555E+02
  1.060266901747E+02  1.035591247864E+02  1.010286332895E+02  9.843655743767E+01
  9.578457024081E+01  9.307469758686E+01  9.030933927921E+01  8.890671015919E+01
  8.749128914088E+01  8.606349009948E+01  8.462375379042E+01  8.317254833188E+01
  8.171036964817E+01  8.023774186951E+01  7.875521768386E+01  7.726337863623E+01
  7.576283537059E+01  7.425422780946E+01  7.273822526644E+01  7.121552648589E+01
  6.968685960522E+01  6.815298203383E+01  6.661468024374E+01  6.507276946615E+01
  6.352809328871E+01  6.198152314793E+01  6.043395771153E+01  5.888632214536E+01
  5.733956725984E+01  5.579466853108E+01  5.425262499192E+01  5.271445798855E+01
  5.118120979878E+01  4.965394210823E+01  4.813373434139E+01  4.662168184503E+01
  4.511889392181E+01  4.362649171305E+01  4.214560592987E+01  4.067737443331E+01
  3.922293966437E+01  3.778344592646E+01  3.636003652328E+01  3.495385075684E+01
  3.356602079109E+01  3.219766838820E+01  3.084990152577E+01  2.952381090475E+01
  2.822046635929E+01  2.694091318121E+01  2.568616837355E+01  2.445721684887E+01
  2.325500759014E+01  2.208044979300E+01  2.093440901038E+01  1.981770332154E+01
  1.873109954937E+01  1.767530955112E+01  1.665098660893E+01  1.565872194797E+01
  1.469904141073E+01  1.377240231701E+01  1.287919053987E+01  1.201971782795E+01
  1.119421940490E+01  1.040285187642E+01  9.645691474857E+00  8.922732670499E+00
  8.233887177422E+00  7.578983380126E+00  6.957766205091E+00  6.369897458903E+00
  5.814956651584E+00  5.292442320408E+00  4.801773865556E+00  4.342293904678E+00
  3.913271148694E+00  3.513903796014E+00  3.143323436873E+00  2.800599453676E+00
  2.484743897169E+00  2.194716812021E+00  1.929431979028E+00  1.687763034824E+00
  1.468549923647E+00  1.270605629675E+00  1.092723132663E+00  9.336825242780E-01
  7.922582177833E-01  6.672261796849E-01  5.573711087103E-01  4.614934852536E-01
  3.784164132376E-01  3.069921763618E-01  2.461084319995E-01  1.946939686674E-01
  1.517239570498E-01  1.162246300561E-01  8.727733430098E-02  6.402190369345E-02
  4.565931540304E-02  3.145359923703E-02  2.073298323426E-02  1.289027086485E-02
  7.382458375929E-03  3.729614264871E-03  1.513056284524E-03  3.728744568059E-04
  4.860941259894E-06  1.569189173391E-04  6.250325404621E-04  1.248888186383E-03
  1.907243300003E-03  2.513142950966E-03  3.009085463837E-03  3.362237100160E-03
  3.559791669384E-03  3.604564172625E-03  3.510898271915E-03  3.300955762555E-03
  3.001442641067E-03  2.640811232568E-03  2.246961677925E-03  1.845449457436E-03
  1.458189163931E-03  1.102629073806E-03  7.913568304003E-04  5.320843410095E-04
  3.279503153598E-04  1.780721552106E-04  7.827542641297E-05  2.192903671028E-05
  8.174651894526E-07  5.987725884983E-06  2.851780813481E-05  6.016457028334E-05
  9.386178864005E-05  1.240525017029E-04  1.468531124746E-04  1.600590948921E-04
  1.630128301173E-04  1.563624275444E-04  1.417458844789E-04  1.214373370759E-04
  9.799141880447E-05  7.391808194678E-05  5.141409677083E-05  3.216946779783E-05
  1.725799197907E-05  7.112004834617E-06  1.572893114117E-06  1.987779848702E-09
  1.431616844208E-06  4.733791403673E-06  8.784342633952E-06  1.260315347953E-05
  1.545599142044E-05  1.690967604035E-05  1.683908599658E-05  1.539095360349E-05
  1.291470086104E-05  9.874093788188E-06  6.754841494309E-06  3.982361089316E-06
  1.861010805552E-06  5.416927485684E-07  1.958619696560E-08  0.000000000000E+00
  0.000000000000E+00  0.000000000000E+00  0.000000000000E+00  0.000000000000E+00
  0.000000000000E+00  0.000000000000E+00  0.000000000000E+00  0.000000000000E+00
  0.000000000000E+00  0.000000000000E+00  0.000000000000E+00  0.000000000000E+00
  0.000000000000E+00  0.000000000000E+00  0.000000000000E+00  0.000000000000E+00
  0.000000000000E+00  0.000000000000E+00  0.000000000000E+00  0.000000000000E+00
  0.000000000000E+00  0.000000000000E+00  0.000000000000E+00  0.000000000000E+00
  0.000000000000E+00  0.000000000000E+00  0.000000000000E+00  0.000000000000E+00
  0.000000000000E+00  0.000000000000E+00  0.000000000000E+00  0.000000000000E+00
  0.000000000000E+00  0.000000000000E+00  0.000000000000E+00  0.000000000000E+00
  0.000000000000E+00  0.000000000000E+00  0.000000000000E+00  0.000000000000E+00
  0.000000000000E+00  0.000000000000E+00  0.000000000000E+00  0.000000000000E+00
  0.000000000000E+00  0.000000000000E+00  0.000000000000E+00  0.000000000000E+00
  0.000000000000E+00  0.000000000000E+00  0.000000000000E+00  0.000000000000E+00
  0.000000000000E+00  0.000000000000E+00  0.000000000000E+00  0.000000000000E+00
  0.000000000000E+00  0.000000000000E+00  0.000000000000E+00  0.000000000000E+00
  0.000000000000E+00  0.000000000000E+00
</data>
</radfunc>
</pseudocore-charge>
<semilocal-potentials set="lj">
<slps n="5" l="s" j="0.5" rc="1.55993651554" eref="-2.45808393506">
<radfunc>
<data npts="290">
  8.970780458986E+00  8.955985836717E+00  8.911812735390E+00  8.838293182861E+00
  8.730813010135E+00  8.594355601972E+00  8.421543188649E+00  8.225157305858E+00
  8.006230922952E+00  7.753418163740E+00  7.471618750889E+00  7.169058676492E+00
  6.808489239821E+00  6.437731301140E+00  6.073152676808E+00  5.660216512445E+00
  5.193745719069E+00  4.760257289563E+00  4.282712373549E+00  3.757973528511E+00
  3.182990588575E+00  2.684885762716E+00  2.151422331198E+00  1.581391332818E+00
  9.737684948179E-01  3.277553307300E-01 -3.571783778214E-01 -8.965650223812E-01
 -1.457939196428E+00 -2.041144086979E+00 -2.645893245589E+00 -3.271762891839E+00
 -3.918185413953E+00 -4.584444303000E+00 -5.269670740212E+00 -5.972842029197E+00
 -6.692782025612E+00 -7.428163666575E+00 -7.926275052052E+00 -8.430126148747E+00
 -8.939219178047E+00 -9.453031180692E+00 -9.971015458124E+00 -1.049260315335E+01
 -1.101720495311E+01 -1.154421289065E+01 -1.207300222676E+01 -1.260293338522E+01
 -1.313335391825E+01 -1.366360047808E+01 -1.419300077132E+01 -1.472087547561E+01
 -1.524654010077E+01 -1.576930678083E+01 -1.628848598804E+01 -1.680338816503E+01
 -1.731332527539E+01 -1.781761227647E+01 -1.831556851790E+01 -1.880651906579E+01
 -1.928979594282E+01 -1.976473925876E+01 -2.023069818427E+01 -2.068703169591E+01
 -2.113310899771E+01 -2.156830951239E+01 -2.199202234356E+01 -2.219938235449E+01
 -2.240364514783E+01 -2.260473648620E+01 -2.280258242552E+01 -2.299710923811E+01
 -2.318824333341E+01 -2.337591117865E+01 -2.356003922183E+01 -2.374055381933E+01
 -2.391738117034E+01 -2.409044725949E+01 -2.425967780903E+01 -2.442499824081E+01
 -2.458633364784E+01 -2.474360877456E+01 -2.489674800428E+01 -2.504567535208E+01
 -2.519031446114E+01 -2.533058860083E+01 -2.546642066526E+01 -2.559773317181E+01
 -2.572444826038E+01 -2.584648769513E+01 -2.596377287241E+01 -2.607622483963E+01
 -2.618376433184E+01 -2.628631183378E+01 -2.638378767643E+01 -2.647611217763E+01
 -2.656320583646E+01 -2.664498959035E+01 -2.672138514244E+01 -2.679231536433E+01
 -2.685770477617E+01 -2.691748010160E+01 -2.697157089072E+01 -2.701991019842E+01
 -2.706243530056E+01 -2.709908842535E+01 -2.712981747334E+01 -2.715457669696E+01
 -2.717332730998E+01 -2.718603799880E+01 -2.719268531159E+01 -2.719325390698E+01
 -2.718773665208E+01 -2.717613456789E+01 -2.715845662903E+01 -2.713471943268E+01
 -2.710494675767E+01 -2.706916903879E+01 -2.702742278300E+01 -2.697974995256E+01
 -2.692619733717E+01 -2.686681593161E+01 -2.680166032923E+01 -2.673078813540E+01
 -2.665425939858E+01 -2.657213605236E+01 -2.648448135806E+01 -2.639135933637E+01
 -2.629283417687E+01 -2.618896961688E+01 -2.607982828524E+01 -2.596547101286E+01
 -2.584595611856E+01 -2.572133868728E+01 -2.559166986593E+01 -2.545699621021E+01
 -2.531735912269E+01 -2.517279442720E+01 -2.502333212552E+01 -2.486899637968E+01
 -2.470980575450E+01 -2.454577374191E+01 -2.437690957156E+01 -2.420321929360E+01
 -2.402470710450E+01 -2.384137687919E+01 -2.365323387846E+01 -2.346028662191E+01