Cd    ONCVPSP-3.3.0  r_core=   1.91042   2.10171   1.71595
48.0000     12.0000      180430    zatom,zion,pspd
8 -116133   2     4   600     0    pspcod,pspxc,lmax,lloc,mmax,r2well
5.99000000  5.00000000  0.00000000    rchrg fchrg qchrg
2     4     2     0    nproj
3     1           extension_switch
4     3     0    nprojso
0                         1.8446003087011D+00  1.0698769957105D+01
1  0.0000000000000D+00  7.1003036783424D-11 -6.0256355460808D-11
2  1.0000000000000D-02 -3.0579021145104D-02  4.5075609194008D-02
3  2.0000000000000D-02 -6.0994415947621D-02  9.0004707169648D-02
4  3.0000000000000D-02 -9.1083385916966D-02  1.3464150923027D-01
5  4.0000000000000D-02 -1.2068478420588D-01  1.7884168020213D-01
6  5.0000000000000D-02 -1.4963993129823D-01  2.2246305040955D-01
7  6.0000000000000D-02 -1.7779341858619D-01  2.6536632114896D-01
8  7.0000000000000D-02 -2.0499389588291D-01  3.0741575623187D-01
9  8.0000000000000D-02 -2.3109483898780D-01  3.4847985622681D-01
10  9.0000000000000D-02 -2.5595529350958D-01  3.8843201210527D-01
11  1.0000000000000D-01 -2.7944059125736D-01  4.2715113508565D-01
12  1.1000000000000D-01 -3.0142303563172D-01  4.6452225957265D-01
13  1.2000000000000D-01 -3.2178255258582D-01  5.0043711620651D-01
14  1.3000000000000D-01 -3.4040730387992D-01  5.3479467216736D-01
15  1.4000000000000D-01 -3.5719425952184D-01  5.6750163602304D-01
16  1.5000000000000D-01 -3.7204972646917D-01  5.9847292456508D-01
17  1.6000000000000D-01 -3.8488983086651D-01  6.2763208924550D-01
18  1.7000000000000D-01 -3.9564095130162D-01  6.5491170000639D-01
19  1.8000000000000D-01 -4.0424010078749D-01  6.8025368448443D-01
20  1.9000000000000D-01 -4.1063525541239D-01  7.0360962077305D-01
21  2.0000000000000D-01 -4.1478562784520D-01  7.2494098213418D-01
22  2.1000000000000D-01 -4.1666188413890D-01  7.4421933227018D-01
23  2.2000000000000D-01 -4.1624630253988D-01  7.6142646999268D-01
24  2.3000000000000D-01 -4.1353287328215D-01  7.7655452235781D-01
25  2.4000000000000D-01 -4.0852733862541D-01  7.8960598557710D-01
26  2.5000000000000D-01 -4.0124717267983D-01  8.0059371325670D-01
27  2.6000000000000D-01 -3.9172150085018D-01  8.0954085176723D-01
28  2.7000000000000D-01 -3.7999095902388D-01  8.1648072279699D-01
29  2.8000000000000D-01 -3.6610749292235D-01  8.2145665339613D-01
30  2.9000000000000D-01 -3.5013409833006D-01  8.2452175407298D-01
31  3.0000000000000D-01 -3.3214450321068D-01  8.2573864576000D-01
32  3.1000000000000D-01 -3.1222279301230D-01  8.2517913671879D-01
33  3.2000000000000D-01 -2.9046298075302D-01  8.2292385070568D-01
34  3.3000000000000D-01 -2.6696852376436D-01  8.1906180796757D-01
35  3.4000000000000D-01 -2.4185178924757D-01  8.1368996087969D-01
36  3.5000000000000D-01 -2.1523347107048D-01  8.0691268627483D-01
37  3.6000000000000D-01 -1.8724196049576D-01  7.9884123674432D-01
38  3.7000000000000D-01 -1.5801267378372D-01  7.8959315341204D-01
39  3.8000000000000D-01 -1.2768733985464D-01  7.7929164289617D-01
40  3.9000000000000D-01 -9.6413251424889D-02  7.6806492137575D-01
41  4.0000000000000D-01 -6.4342483244646D-02  7.5604552886873D-01
42  4.1000000000000D-01 -3.1631081265967D-02  7.4336961700745D-01
43  4.2000000000000D-01  1.5617732486687D-03  7.3017621376001D-01
44  4.3000000000000D-01  3.5074620500708D-02  7.1660646869656D-01
45  4.4000000000000D-01  6.8744595490437D-02  7.0280288253214D-01
46  4.5000000000000D-01  1.0240831346356D-01  6.8890852479437D-01
47  4.6000000000000D-01  1.3590276291421D-01  6.7506624356382D-01
48  4.7000000000000D-01  1.6906620150562D-01  6.6141787131542D-01
49  4.8000000000000D-01  2.0173905020747D-01  6.4810343095059D-01
50  4.9000000000000D-01  2.3376478091088D-01  6.3526034615190D-01
51  5.0000000000000D-01  2.6499079276725D-01  6.2302266021320D-01
52  5.1000000000000D-01  2.9526927250594D-01  6.1152026749950D-01
53  5.2000000000000D-01  3.2445803402099D-01  6.0087816166954D-01
54  5.3000000000000D-01  3.5242133257521D-01  5.9121570475279D-01
55  5.4000000000000D-01  3.7903064905410D-01  5.8264592110891D-01
56  5.5000000000000D-01  4.0416543981112D-01  5.7527482021257D-01
57  5.6000000000000D-01  4.2771384778017D-01  5.6920075209908D-01
58  5.7000000000000D-01  4.4957337068757D-01  5.6451379918022D-01
59  5.8000000000000D-01  4.6965148238163D-01  5.6129520798683D-01
60  5.9000000000000D-01  4.8786620349999D-01  5.5961686422924D-01
61  6.0000000000000D-01  5.0414661792833D-01  5.5954081437156D-01
62  6.1000000000000D-01  5.1843333175106D-01  5.6111883671077D-01
63  6.2000000000000D-01  5.3067887167042D-01  5.6439206471938D-01
64  6.3000000000000D-01  5.4084802016012D-01  5.6939066516692D-01
65  6.4000000000000D-01  5.4891808493280D-01  5.7613357327021D-01
66  6.5000000000000D-01  5.5487910062726D-01  5.8462828684583D-01
67  6.6000000000000D-01  5.5873396096721D-01  5.9487072114302D-01
68  6.7000000000000D-01  5.6049848000119D-01  6.0684512573053D-01
69  6.8000000000000D-01  5.6020138140574D-01  6.2052406449104D-01
70  6.9000000000000D-01  5.5788421521373D-01  6.3586845945174D-01
71  7.0000000000000D-01  5.5360120172256D-01  6.5282769884046D-01
72  7.1000000000000D-01  5.4741900273392D-01  6.7133980941459D-01
73  7.2000000000000D-01  5.3941642067808D-01  6.9133169276268D-01
74  7.3000000000000D-01  5.2968402658227D-01  7.1271942492526D-01
75  7.4000000000000D-01  5.1832371824450D-01  7.3540861833276D-01
76  7.5000000000000D-01  5.0544821038045D-01  7.5929484470248D-01
77  7.6000000000000D-01  4.9118045890772D-01  7.8426411719066D-01
78  7.7000000000000D-01  4.7565302192331D-01  8.1019342975136D-01
79  7.8000000000000D-01  4.5900736031415D-01  8.3695135131567D-01
80  7.9000000000000D-01  4.4139308131177D-01  8.6439867207665D-01
81  8.0000000000000D-01  4.2296712865902D-01  8.9238909884918D-01
82  8.1000000000000D-01  4.0389292340135D-01  9.2076999616623D-01
83  8.2000000000000D-01  3.8433945963507D-01  9.4938316948742D-01
84  8.3000000000000D-01  3.6448035985412D-01  9.7806568661640D-01
85  8.4000000000000D-01  3.4449289481245D-01  1.0066507331755D+00
86  8.5000000000000D-01  3.2455697308175D-01  1.0349684977441D+00
87  8.6000000000000D-01  3.0485410571096D-01  1.0628470820611D+00
88  8.7000000000000D-01  2.8556635160022D-01  1.0901134314959D+00
89  8.8000000000000D-01  2.6687524937400D-01  1.1165942808331D+00
90  8.9000000000000D-01  2.4896074168181D-01  1.1421171102725D+00
91  9.0000000000000D-01  2.3200009796540D-01  1.1665111064391D+00
92  9.1000000000000D-01  2.1616684180875D-01  1.1896081231107D+00
93  9.2000000000000D-01  2.0162968903045D-01  1.2112436363201D+00
94  9.3000000000000D-01  1.8855150268624D-01  1.2312576884629D+00
95  9.4000000000000D-01  1.7708827112206D-01  1.2494958160499D+00
96  9.5000000000000D-01  1.6738811515520D-01  1.2658099557784D+00
97  9.6000000000000D-01  1.5959033036184D-01  1.2800593236689D+00
98  9.7000000000000D-01  1.5382447031391D-01  1.2921112621085D+00
99  9.8000000000000D-01  1.5020947643819D-01  1.3018420497773D+00
100  9.9000000000000D-01  1.4885285996585D-01  1.3091376695894D+00
101  1.0000000000000D+00  1.4984994119507D-01  1.3138945299809D+00
102  1.0100000000000D+00  1.5328315102641D-01  1.3160201350831D+00
103  1.0200000000000D+00  1.5922139941744D-01  1.3154336995783D+00
104  1.0300000000000D+00  1.6771951506701D-01  1.3120667043085D+00
105  1.0400000000000D+00  1.7881776027759D-01  1.3058633890056D+00
106  1.0500000000000D+00  1.9254142455375D-01  1.2967811788381D+00
107  1.0600000000000D+00  2.0890050005527D-01  1.2847910418302D+00
108  1.0700000000000D+00  2.2788944163207D-01  1.2698777745428D+00
109  1.0800000000000D+00  2.4948701364821D-01  1.2520402138366D+00
110  1.0900000000000D+00  2.7365622535827D-01  1.2312913729160D+00
111  1.1000000000000D+00  3.0034435609240D-01  1.2076585002792D+00
112  1.1100000000000D+00  3.2948307098061D-01  1.1811830606449D+00
113  1.1200000000000D+00  3.6098862749703D-01  1.1519206373119D+00
114  1.1300000000000D+00  3.9476217247596D-01  1.1199407559403D+00
115  1.1400000000000D+00  4.3069012880585D-01  1.0853266301270D+00
116  1.1500000000000D+00  4.6864467039880D-01  1.0481748296706D+00
117  1.1600000000000D+00  5.0848428365238D-01  1.0085948727464D+00
118  1.1700000000000D+00  5.5005441290672D-01  9.6670874382925D-01
119  1.1800000000000D+00  5.9318818700545D-01  9.2265033954386D-01
120  1.1900000000000D+00  6.3770722354552D-01  8.7656484507719D-01
121  1.2000000000000D+00  6.8342250695894D-01  8.2860804417000D-01
122  1.2100000000000D+00  7.3013533599370D-01  7.7894556621071D-01
123  1.2200000000000D+00  7.7763833574651D-01  7.2775207431908D-01
124  1.2300000000000D+00  8.2571652915885D-01  6.7521039851804D-01
125  1.2400000000000D+00  8.7414846220275D-01  6.2151061869910D-01
126  1.2500000000000D+00  9.2270737676918D-01  5.6684910228071D-01
127  1.2600000000000D+00  9.7116242503260D-01  5.1142750167146D-01
128  1.2700000000000D+00  1.0192799185804D+00  4.5545171708689D-01
129  1.2800000000000D+00  1.0668246053972D+00  3.9913083045783D-01
130  1.2900000000000D+00  1.1135609676907D+00  3.4267601626092D-01
131  1.3000000000000D+00  1.1592545331845D+00  2.8629943543886D-01
132  1.3100000000000D+00  1.2036731924510D+00  2.3021311864579D-01
133  1.3200000000000D+00  1.2465885148105D+00  1.7462784509313D-01
134  1.3300000000000D+00  1.2877770551189D+00  1.1975202348189D-01
135  1.3400000000000D+00  1.3270216439623D+00  6.5790581366928D-02
136  1.3500000000000D+00  1.3641126535780D+00  1.2943869449766D-02
137  1.3600000000000D+00  1.3988492320913D+00 -3.8593412860976D-02
138  1.3700000000000D+00  1.4310404987911D+00 -8.8633264409528D-02
139  1.3800000000000D+00  1.4605066929994D+00 -1.3699539540563D-01
140  1.3900000000000D+00  1.4870802699524D+00 -1.8350820099268D-01
141  1.4000000000000D+00  1.5106069366404D+00 -2.2800968921070D-01
142  1.4100000000000D+00  1.5309466212594D+00 -2.7034835783591D-01
143  1.4200000000000D+00  1.5479743706009D+00 -3.1038401513199D-01
144  1.4300000000000D+00  1.5615811688136D+00 -3.4798853881747D-01
145  1.4400000000000D+00  1.5716746733484D+00 -3.8304656948162D-01
146  1.4500000000000D+00  1.5781798622985D+00 -4.1545613338315D-01
147  1.4600000000000D+00  1.5810395892145D+00 -4.4512919108402D-01
148  1.4700000000000D+00  1.5802150418793D+00 -4.7199210871515D-01
149  1.4800000000000D+00  1.5756861004974D+00 -4.9598604780844D-01
150  1.4900000000000D+00  1.5674515945538D+00 -5.1706727278234D-01
151  1.5000000000000D+00  1.5555294536630D+00 -5.3520737190033D-01
152  1.5100000000000D+00  1.5399567532125D+00 -5.5039339207861D-01
153  1.5200000000000D+00  1.5207896520073D+00 -5.6262788492824D-01
154  1.5300000000000D+00  1.4981032223902D+00 -5.7192886413679D-01
155  1.5400000000000D+00  1.4719911732469D+00 -5.7832967425105D-01
156  1.5500000000000D+00  1.4425654654669D+00 -5.8187877020646D-01
157  1.5600000000000D+00  1.4099558236653D+00 -5.8263941052295D-01
158  1.5700000000000D+00  1.3743091428776D+00 -5.8068926278076D-01
159  1.5800000000000D+00  1.3357887970689D+00 -5.7611992686950D-01
160  1.5900000000000D+00  1.2945738480245D+00 -5.6903637448870D-01
161  1.6000000000000D+00  1.2508581631416D+00 -5.5955631182657D-01
162  1.6100000000000D+00  1.2048494421541D+00 -5.4780946512953D-01
163  1.6200000000000D+00  1.1567681614165D+00 -5.3393679619209D-01
164  1.6300000000000D+00  1.1068464379592D+00 -5.1808964932696D-01
165  1.6400000000000D+00  1.0553268217600D+00 -5.0042883670631D-01
166  1.6500000000000D+00  1.0024610203650D+00 -4.8112366527099D-01
167  1.6600000000000D+00  9.4850856316110D-01 -4.6035091184810D-01
168  1.6700000000000D+00  8.9373541692072D-01 -4.3829375207883D-01
169  1.6800000000000D+00  8.3841254145809D-01 -4.1514064617470D-01
170  1.6900000000000D+00  7.8281444163589D-01 -3.9108419744123D-01
171  1.7000000000000D+00  7.2721767762502D-01 -3.6631997920592D-01
172  1.7100000000000D+00  6.7189920521983D-01 -3.4104531290378D-01
173  1.7200000000000D+00  6.1713494892350D-01 -3.1545807971742D-01
174  1.7300000000000D+00  5.6319865289949D-01 -2.8975557131290D-01
175  1.7400000000000D+00  5.1036064106967D-01 -2.6413333645735D-01
176  1.7500000000000D+00  4.5888669704676D-01 -2.3878407399076D-01
177  1.7600000000000D+00  4.0903687105168D-01 -2.1389651962805D-01
178  1.7700000000000D+00  3.6106393452777D-01 -1.8965428898327D-01
179  1.7800000000000D+00  3.1521197115886D-01 -1.6623476718837D-01
180  1.7900000000000D+00  2.7171510403530D-01 -1.4380804215964D-01
181  1.8000000000000D+00  2.3079618228330D-01 -1.2253586173446D-01
182  1.8100000000000D+00  1.9266556008924D-01 -1.0257064170171D-01
183  1.8200000000000D+00  1.5751992106301D-01 -8.4054517213334D-02
184  1.8300000000000D+00  1.2554117607662D-01 -6.7118452197659D-02
185  1.8400000000000D+00  9.6895428265140D-02 -5.1881402886139D-02
186  1.8500000000000D+00  7.1749073805633D-02 -3.8458603212180D-02
187  1.8600000000000D+00  5.0199454039441D-02 -2.6924501255534D-02
188  1.8700000000000D+00  3.2287982855366D-02 -1.7319438518504D-02
189  1.8800000000000D+00  1.8229211471336D-02 -9.7713358072520D-03
190  1.8900000000000D+00  8.3561125106589D-03 -4.4663951463554D-03
191  1.9000000000000D+00  2.5811920997902D-03 -1.3623317260083D-03
192  1.9100000000000D+00 -1.6416740846446D-05  3.0742121736821D-05
193  1.9200000000000D+00 -5.5657138982816D-04  3.1186592604885D-04
194  1.9300000000000D+00 -1.6931249802420D-04  9.3666921111698D-05
195  1.9400000000000D+00  1.4591092093682D-04 -8.0493097126618D-05
196  1.9500000000000D+00  1.1809706696288D-04 -6.4988248180288D-05
197  1.9600000000000D+00 -1.5547853690034D-05  8.6261956596890D-06
198  1.9700000000000D+00 -2.9298849778369D-05  1.6226871603229D-05
199  1.9800000000000D+00 -1.0247570817820D-07  5.6683447053989D-08
200  1.9900000000000D+00  2.0250298075768D-07 -1.6945924295329D-07
201  2.0000000000000D+00  9.2980959963557D-08 -7.7808647682816D-08
202  2.0100000000000D+00  0.0000000000000D+00  0.0000000000000D+00
203  2.0200000000000D+00  0.0000000000000D+00  0.0000000000000D+00
204  2.0300000000000D+00  0.0000000000000D+00  0.0000000000000D+00
205  2.0400000000000D+00  0.0000000000000D+00  0.0000000000000D+00
206  2.0500000000000D+00  0.0000000000000D+00  0.0000000000000D+00
207  2.0600000000000D+00  0.0000000000000D+00  0.0000000000000D+00
208  2.0700000000000D+00  0.0000000000000D+00  0.0000000000000D+00
209  2.0800000000000D+00  0.0000000000000D+00  0.0000000000000D+00
210  2.0900000000000D+00  0.0000000000000D+00  0.0000000000000D+00
211  2.1000000000000D+00  0.0000000000000D+00  0.0000000000000D+00
212  2.1100000000000D+00  0.0000000000000D+00  0.0000000000000D+00
213  2.1200000000000D+00  0.0000000000000D+00  0.0000000000000D+00
214  2.1300000000000D+00  0.0000000000000D+00  0.0000000000000D+00
215  2.1400000000000D+00  0.0000000000000D+00  0.0000000000000D+00
216  2.1500000000000D+00  0.0000000000000D+00  0.0000000000000D+00
217  2.1600000000000D+00  0.0000000000000D+00  0.0000000000000D+00
218  2.1700000000000D+00  0.0000000000000D+00  0.0000000000000D+00
219  2.1800000000000D+00  0.0000000000000D+00  0.0000000000000D+00
220  2.1900000000000D+00  0.0000000000000D+00  0.0000000000000D+00
221  2.2000000000000D+00  0.0000000000000D+00  0.0000000000000D+00
222  2.2100000000000D+00  0.0000000000000D+00  0.0000000000000D+00
223  2.2200000000000D+00  0.0000000000000D+00  0.0000000000000D+00
224  2.2300000000000D+00  0.0000000000000D+00  0.0000000000000D+00
225  2.2400000000000D+00  0.0000000000000D+00  0.0000000000000D+00
226  2.2500000000000D+00  0.0000000000000D+00  0.0000000000000D+00
227  2.2600000000000D+00  0.0000000000000D+00  0.0000000000000D+00
228  2.2700000000000D+00  0.0000000000000D+00  0.0000000000000D+00
229  2.2800000000000D+00  0.0000000000000D+00  0.0000000000000D+00
230  2.2900000000000D+00  0.0000000000000D+00  0.0000000000000D+00
231  2.3000000000000D+00  0.0000000000000D+00  0.0000000000000D+00
232  2.3100000000000D+00  0.0000000000000D+00  0.0000000000000D+00
233  2.3200000000000D+00  0.0000000000000D+00  0.0000000000000D+00
234  2.3300000000000D+00  0.0000000000000D+00  0.0000000000000D+00
235  2.3400000000000D+00  0.0000000000000D+00  0.0000000000000D+00
236  2.3500000000000D+00  0.0000000000000D+00  0.0000000000000D+00
237  2.3600000000000D+00  0.0000000000000D+00  0.0000000000000D+00
238  2.3700000000000D+00  0.0000000000000D+00  0.0000000000000D+00
239  2.3800000000000D+00  0.0000000000000D+00  0.0000000000000D+00
240  2.3900000000000D+00  0.0000000000000D+00  0.0000000000000D+00
241  2.4000000000000D+00  0.0000000000000D+00  0.0000000000000D+00
242  2.4100000000000D+00  0.0000000000000D+00  0.0000000000000D+00
243  2.4200000000000D+00  0.0000000000000D+00  0.0000000000000D+00
244  2.4300000000000D+00  0.0000000000000D+00  0.0000000000000D+00
245  2.4400000000000D+00  0.0000000000000D+00  0.0000000000000D+00
246  2.4500000000000D+00  0.0000000000000D+00  0.0000000000000D+00
247  2.4600000000000D+00  0.0000000000000D+00  0.0000000000000D+00
248  2.4700000000000D+00  0.0000000000000D+00  0.0000000000000D+00
249  2.4800000000000D+00  0.0000000000000D+00  0.0000000000000D+00
250  2.4900000000000D+00  0.0000000000000D+00  0.0000000000000D+00
251  2.5000000000000D+00  0.0000000000000D+00  0.0000000000000D+00
252  2.5100000000000D+00  0.0000000000000D+00  0.0000000000000D+00
253  2.5200000000000D+00  0.0000000000000D+00  0.0000000000000D+00
254  2.5300000000000D+00  0.0000000000000D+00  0.0000000000000D+00
255  2.5400000000000D+00  0.0000000000000D+00  0.0000000000000D+00
256  2.5500000000000D+00  0.0000000000000D+00  0.0000000000000D+00
257  2.5600000000000D+00  0.0000000000000D+00  0.0000000000000D+00
258  2.5700000000000D+00  0.0000000000000D+00  0.0000000000000D+00
259  2.5800000000000D+00  0.0000000000000D+00  0.0000000000000D+00
260  2.5900000000000D+00  0.0000000000000D+00  0.0000000000000D+00
261  2.6000000000000D+00  0.0000000000000D+00  0.0000000000000D+00
262  2.6100000000000D+00  0.0000000000000D+00  0.0000000000000D+00
263  2.6200000000000D+00  0.0000000000000D+00  0.0000000000000D+00
264  2.6300000000000D+00  0.0000000000000D+00  0.0000000000000D+00
265  2.6400000000000D+00  0.0000000000000D+00  0.0000000000000D+00
266  2.6500000000000D+00  0.0000000000000D+00  0.0000000000000D+00
267  2.6600000000000D+00  0.0000000000000D+00  0.0000000000000D+00
268  2.6700000000000D+00  0.0000000000000D+00  0.0000000000000D+00
269  2.6800000000000D+00  0.0000000000000D+00  0.0000000000000D+00
270  2.6900000000000D+00  0.0000000000000D+00  0.0000000000000D+00
271  2.7000000000000D+00  0.0000000000000D+00  0.0000000000000D+00
272  2.7100000000000D+00  0.0000000000000D+00  0.0000000000000D+00
273  2.7200000000000D+00  0.0000000000000D+00  0.0000000000000D+00
274  2.7300000000000D+00  0.0000000000000D+00  0.0000000000000D+00
275  2.7400000000000D+00  0.0000000000000D+00  0.0000000000000D+00
276  2.7500000000000D+00  0.0000000000000D+00  0.0000000000000D+00
277  2.7600000000000D+00  0.0000000000000D+00  0.0000000000000D+00
278  2.7700000000000D+00  0.0000000000000D+00  0.0000000000000D+00
279  2.7800000000000D+00  0.0000000000000D+00  0.0000000000000D+00
280  2.7900000000000D+00  0.0000000000000D+00  0.0000000000000D+00
281  2.8000000000000D+00  0.0000000000000D+00  0.0000000000000D+00
282  2.8100000000000D+00  0.0000000000000D+00  0.0000000000000D+00
283  2.8200000000000D+00  0.0000000000000D+00  0.0000000000000D+00
284  2.8300000000000D+00  0.0000000000000D+00  0.0000000000000D+00
285  2.8400000000000D+00  0.0000000000000D+00  0.0000000000000D+00
286  2.8500000000000D+00  0.0000000000000D+00  0.0000000000000D+00
287  2.8600000000000D+00  0.0000000000000D+00  0.0000000000000D+00
288  2.8700000000000D+00  0.0000000000000D+00  0.0000000000000D+00
289  2.8800000000000D+00  0.0000000000000D+00  0.0000000000000D+00
290  2.8900000000000D+00  0.0000000000000D+00  0.0000000000000D+00
291  2.9000000000000D+00  0.0000000000000D+00  0.0000000000000D+00
292  2.9100000000000D+00  0.0000000000000D+00  0.0000000000000D+00
293  2.9200000000000D+00  0.0000000000000D+00  0.0000000000000D+00
294  2.9300000000000D+00  0.0000000000000D+00  0.0000000000000D+00
295  2.9400000000000D+00  0.0000000000000D+00  0.0000000000000D+00
296  2.9500000000000D+00  0.0000000000000D+00  0.0000000000000D+00
297  2.9600000000000D+00  0.0000000000000D+00  0.0000000000000D+00
298  2.9700000000000D+00  0.0000000000000D+00  0.0000000000000D+00
299  2.9800000000000D+00  0.0000000000000D+00  0.0000000000000D+00
300  2.9900000000000D+00  0.0000000000000D+00  0.0000000000000D+00
301  3.0000000000000D+00  0.0000000000000D+00  0.0000000000000D+00
302  3.0100000000000D+00  0.0000000000000D+00  0.0000000000000D+00
303  3.0200000000000D+00  0.0000000000000D+00  0.0000000000000D+00
304  3.0300000000000D+00  0.0000000000000D+00  0.0000000000000D+00
305  3.0400000000000D+00  0.0000000000000D+00  0.0000000000000D+00
306  3.0500000000000D+00  0.0000000000000D+00  0.0000000000000D+00
307  3.0600000000000D+00  0.0000000000000D+00  0.0000000000000D+00
308  3.0700000000000D+00  0.0000000000000D+00  0.0000000000000D+00
309  3.0800000000000D+00  0.0000000000000D+00  0.0000000000000D+00
310  3.0900000000000D+00  0.0000000000000D+00  0.0000000000000D+00
311  3.1000000000000D+00  0.0000000000000D+00  0.0000000000000D+00
312  3.1100000000000D+00  0.0000000000000D+00  0.0000000000000D+00
313  3.1200000000000D+00  0.0000000000000D+00  0.0000000000000D+00
314  3.1300000000000D+00  0.0000000000000D+00  0.0000000000000D+00
315  3.1400000000000D+00  0.0000000000000D+00  0.0000000000000D+00
316  3.1500000000000D+00  0.0000000000000D+00  0.0000000000000D+00
317  3.1600000000000D+00  0.0000000000000D+00  0.0000000000000D+00
318  3.1700000000000D+00  0.0000000000000D+00  0.0000000000000D+00
319  3.1800000000000D+00  0.0000000000000D+00  0.0000000000000D+00
320  3.1900000000000D+00  0.0000000000000D+00  0.0000000000000D+00
321  3.2000000000000D+00  0.0000000000000D+00  0.0000000000000D+00
322  3.2100000000000D+00  0.0000000000000D+00  0.0000000000000D+00
323  3.2200000000000D+00  0.0000000000000D+00  0.0000000000000D+00
324  3.2300000000000D+00  0.0000000000000D+00  0.0000000000000D+00
325  3.2400000000000D+00  0.0000000000000D+00  0.0000000000000D+00
326  3.2500000000000D+00  0.0000000000000D+00  0.0000000000000D+00
327  3.2600000000000D+00  0.0000000000000D+00  0.0000000000000D+00
328  3.2700000000000D+00  0.0000000000000D+00  0.0000000000000D+00
329  3.2800000000000D+00  0.0000000000000D+00  0.0000000000000D+00
330  3.2900000000000D+00  0.0000000000000D+00  0.0000000000000D+00
331  3.3000000000000D+00  0.0000000000000D+00  0.0000000000000D+00
332  3.3100000000000D+00  0.0000000000000D+00  0.0000000000000D+00
333  3.3200000000000D+00  0.0000000000000D+00  0.0000000000000D+00
334  3.3300000000000D+00  0.0000000000000D+00  0.0000000000000D+00
335  3.3400000000000D+00  0.0000000000000D+00  0.0000000000000D+00
336  3.3500000000000D+00  0.0000000000000D+00  0.0000000000000D+00
337  3.3600000000000D+00  0.0000000000000D+00  0.0000000000000D+00
338  3.3700000000000D+00  0.0000000000000D+00  0.0000000000000D+00
339  3.3800000000000D+00  0.0000000000000D+00  0.0000000000000D+00
340  3.3900000000000D+00  0.0000000000000D+00  0.0000000000000D+00
341  3.4000000000000D+00  0.0000000000000D+00  0.0000000000000D+00
342  3.4100000000000D+00  0.0000000000000D+00  0.0000000000000D+00
343  3.4200000000000D+00  0.0000000000000D+00  0.0000000000000D+00
344  3.4300000000000D+00  0.0000000000000D+00  0.0000000000000D+00
345  3.4400000000000D+00  0.0000000000000D+00  0.0000000000000D+00
346  3.4500000000000D+00  0.0000000000000D+00  0.0000000000000D+00
347  3.4600000000000D+00  0.0000000000000D+00  0.0000000000000D+00
348  3.4700000000000D+00  0.0000000000000D+00  0.0000000000000D+00
349  3.4800000000000D+00  0.0000000000000D+00  0.0000000000000D+00
350  3.4900000000000D+00  0.0000000000000D+00  0.0000000000000D+00
351  3.5000000000000D+00  0.0000000000000D+00  0.0000000000000D+00
352  3.5100000000000D+00  0.0000000000000D+00  0.0000000000000D+00
353  3.5200000000000D+00  0.0000000000000D+00  0.0000000000000D+00
354  3.5300000000000D+00  0.0000000000000D+00  0.0000000000000D+00
355  3.5400000000000D+00  0.0000000000000D+00  0.0000000000000D+00
356  3.5500000000000D+00  0.0000000000000D+00  0.0000000000000D+00
357  3.5600000000000D+00  0.0000000000000D+00  0.0000000000000D+00
358  3.5700000000000D+00  0.0000000000000D+00  0.0000000000000D+00
359  3.5800000000000D+00  0.0000000000000D+00  0.0000000000000D+00
360  3.5900000000000D+00  0.0000000000000D+00  0.0000000000000D+00
361  3.6000000000000D+00  0.0000000000000D+00  0.0000000000000D+00
362  3.6100000000000D+00  0.0000000000000D+00  0.0000000000000D+00
363  3.6200000000000D+00  0.0000000000000D+00  0.0000000000000D+00
364  3.6300000000000D+00  0.0000000000000D+00  0.0000000000000D+00
365  3.6400000000000D+00  0.0000000000000D+00  0.0000000000000D+00
366  3.6500000000000D+00  0.0000000000000D+00  0.0000000000000D+00
367  3.6600000000000D+00  0.0000000000000D+00  0.0000000000000D+00
368  3.6700000000000D+00  0.0000000000000D+00  0.0000000000000D+00
369  3.6800000000000D+00  0.0000000000000D+00  0.0000000000000D+00
370  3.6900000000000D+00  0.0000000000000D+00  0.0000000000000D+00
371  3.7000000000000D+00  0.0000000000000D+00  0.0000000000000D+00
372  3.7100000000000D+00  0.0000000000000D+00  0.0000000000000D+00
373  3.7200000000000D+00  0.0000000000000D+00  0.0000000000000D+00
374  3.7300000000000D+00  0.0000000000000D+00  0.0000000000000D+00
375  3.7400000000000D+00  0.0000000000000D+00  0.0000000000000D+00
376  3.7500000000000D+00  0.0000000000000D+00  0.0000000000000D+00
377  3.7600000000000D+00  0.0000000000000D+00  0.0000000000000D+00
378  3.7700000000000D+00  0.0000000000000D+00  0.0000000000000D+00
379  3.7800000000000D+00  0.0000000000000D+00  0.0000000000000D+00
380  3.7900000000000D+00  0.0000000000000D+00  0.0000000000000D+00
381  3.8000000000000D+00  0.0000000000000D+00  0.0000000000000D+00
382  3.8100000000000D+00  0.0000000000000D+00  0.0000000000000D+00
383  3.8200000000000D+00  0.0000000000000D+00  0.0000000000000D+00
384  3.8300000000000D+00  0.0000000000000D+00  0.0000000000000D+00
385  3.8400000000000D+00  0.0000000000000D+00  0.0000000000000D+00
386  3.8500000000000D+00  0.0000000000000D+00  0.0000000000000D+00
387  3.8600000000000D+00  0.0000000000000D+00  0.0000000000000D+00
388  3.8700000000000D+00  0.0000000000000D+00  0.0000000000000D+00
389  3.8800000000000D+00  0.0000000000000D+00  0.0000000000000D+00
390  3.8900000000000D+00  0.0000000000000D+00  0.0000000000000D+00
391  3.9000000000000D+00  0.0000000000000D+00  0.0000000000000D+00
392  3.9100000000000D+00  0.0000000000000D+00  0.0000000000000D+00
393  3.9200000000000D+00  0.0000000000000D+00  0.0000000000000D+00
394  3.9300000000000D+00  0.0000000000000D+00  0.0000000000000D+00
395  3.9400000000000D+00  0.0000000000000D+00  0.0000000000000D+00
396  3.9500000000000D+00  0.0000000000000D+00  0.0000000000000D+00
397  3.9600000000000D+00  0.0000000000000D+00  0.0000000000000D+00
398  3.9700000000000D+00  0.0000000000000D+00  0.0000000000000D+00
399  3.9800000000000D+00  0.0000000000000D+00  0.0000000000000D+00
400  3.9900000000000D+00  0.0000000000000D+00  0.0000000000000D+00
401  4.0000000000000D+00  0.0000000000000D+00  0.0000000000000D+00
402  4.0100000000000D+00  0.0000000000000D+00  0.0000000000000D+00
403  4.0200000000000D+00  0.0000000000000D+00  0.0000000000000D+00
404  4.0300000000000D+00  0.0000000000000D+00  0.0000000000000D+00
405  4.0400000000000D+00  0.0000000000000D+00  0.0000000000000D+00
406  4.0500000000000D+00  0.0000000000000D+00  0.0000000000000D+00
407  4.0600000000000D+00  0.0000000000000D+00  0.0000000000000D+00
408  4.0700000000000D+00  0.0000000000000D+00  0.0000000000000D+00
409  4.0800000000000D+00  0.0000000000000D+00  0.0000000000000D+00
410  4.0900000000000D+00  0.0000000000000D+00  0.0000000000000D+00
411  4.1000000000000D+00  0.0000000000000D+00  0.0000000000000D+00
412  4.1100000000000D+00  0.0000000000000D+00  0.0000000000000D+00
413  4.1200000000000D+00  0.0000000000000D+00  0.0000000000000D+00
414  4.1300000000000D+00  0.0000000000000D+00  0.0000000000000D+00
415  4.1400000000000D+00  0.0000000000000D+00  0.0000000000000D+00
416  4.1500000000000D+00  0.0000000000000D+00  0.0000000000000D+00
417  4.1600000000000D+00  0.0000000000000D+00  0.0000000000000D+00
418  4.1700000000000D+00  0.0000000000000D+00  0.0000000000000D+00
419  4.1800000000000D+00  0.0000000000000D+00  0.0000000000000D+00
420  4.1900000000000D+00  0.0000000000000D+00  0.0000000000000D+00
421  4.2000000000000D+00  0.0000000000000D+00  0.0000000000000D+00
422  4.2100000000000D+00  0.0000000000000D+00  0.0000000000000D+00
423  4.2200000000000D+00  0.0000000000000D+00  0.0000000000000D+00
424  4.2300000000000D+00  0.0000000000000D+00  0.0000000000000D+00
425  4.2400000000000D+00  0.0000000000000D+00  0.0000000000000D+00
426  4.2500000000000D+00  0.0000000000000D+00  0.0000000000000D+00
427  4.2600000000000D+00  0.0000000000000D+00  0.0000000000000D+00
428  4.2700000000000D+00  0.0000000000000D+00  0.0000000000000D+00
429  4.2800000000000D+00  0.0000000000000D+00  0.0000000000000D+00
430  4.2900000000000D+00  0.0000000000000D+00  0.0000000000000D+00
431  4.3000000000000D+00  0.0000000000000D+00  0.0000000000000D+00
432  4.3100000000000D+00  0.0000000000000D+00  0.0000000000000D+00
433  4.3200000000000D+00  0.0000000000000D+00  0.0000000000000D+00
434  4.3300000000000D+00  0.0000000000000D+00  0.0000000000000D+00
435  4.3400000000000D+00  0.0000000000000D+00  0.0000000000000D+00
436  4.3500000000000D+00  0.0000000000000D+00  0.0000000000000D+00
437  4.3600000000000D+00  0.0000000000000D+00  0.0000000000000D+00
438  4.3700000000000D+00  0.0000000000000D+00  0.0000000000000D+00
439  4.3800000000000D+00  0.0000000000000D+00  0.0000000000000D+00
440  4.3900000000000D+00  0.0000000000000D+00  0.0000000000000D+00
441  4.4000000000000D+00  0.0000000000000D+00  0.0000000000000D+00
442  4.4100000000000D+00  0.0000000000000D+00  0.0000000000000D+00
443  4.4200000000000D+00  0.0000000000000D+00  0.0000000000000D+00