<?xml version="1.0" encoding="UTF-8" ?>
<psml version="1.1" energy_unit="hartree" length_unit="bohr"
 uuid="4ac589a0-53a1-11e8-765a-e221663f3e6f"
 xmlns="http://esl.cecam.org/PSML/ns/1.1">
<provenance creator="ONCVPSP-3.3.0+psml-3.3.0-73 (fully-relativistic)"
 date="2018-05-09">
<annotation action="semilocal-pseudopotential-generation"
 action-cont="projectors-generation" />
<input-file name="oncvpsp-input">
<![CDATA[# atsym z nc nv iexc psfile
Cd 48 6 4 -116133 upf
# n l f
1 0 2.0
2 0 2.0
2 1 6.0
3 0 2.0
3 1 6.0
3 2 10.0
4 0 2.0
4 1 6.0
4 2 10.0
5 0 2.0
# lmax
2
# l rc ep ncon nbas qcut
0 1.2 0.0 4 8 10.2
1 1.2 0.0 4 8 11.2
2 1.25 0.0 4 8 11.2
# lloc lpopt rc5 dvloc0
4 5 1.15 0.0
# l nproj debl
0 2 2.0
1 2 2.0
2 2 2.0
# icmod fcfact rcfact
3 6.0 1.26
# epsh1 epsh2 depsh
-12.0 12.0 0.02
# rlmax drl
6.0 0.01
 0
]]>
</input-file>
</provenance>
<pseudo-atom-spec atomic-label="Cd" atomic-number="48" z-pseudo="20"
 flavor="Hamann&apos;s oncvpsp" relativity="dirac" spin-dft="no"
 core-corrections="yes">
<annotation pseudo-energy="-167.728122990" />
<exchange-correlation>
<annotation oncvpsp-xc-code="-116133" oncvpsp-xc-type="libxc-interface" />
<libxc-info number-of-functionals="2">
<functional name="Perdew, Burke &amp; Ernzerhof SOL (GGA)" type="exchange"
 id="116" />
<functional name="Perdew, Burke &amp; Ernzerhof SOL (GGA)" type="correlation"
 id="133" />
</libxc-info>
</exchange-correlation>
<valence-configuration total-valence-charge="20">
<shell n="4" l="s" occupation="2" />
<shell n="4" l="p" occupation="6" />
<shell n="4" l="d" occupation="10" />
<shell n="5" l="s" occupation="2" />
</valence-configuration>
</pseudo-atom-spec>
<grid npts="457">
<annotation type="sampled from oncvpsp log grid"
 recipe="r(i:1..N) = r1*exp(a*(i-1)) + r=0; resampled"
 recipe-cont="r1: scale; a: step" scale="0.104166666667E-04"
 step="0.119285708653E-01" delta="0.500000000000E-02" rmax="44.0153601024" />
<grid-data>
  0.000000000000E+00  5.026136093974E-03  1.003931241072E-02  1.506056948927E-02
  2.029337154766E-02  2.545563554462E-02  3.080861283122E-02  3.597649143716E-02
  4.102083010503E-02  4.621783200185E-02  5.145578192561E-02  5.660806138672E-02
  6.227623979354E-02  6.769957927664E-02  7.272254093181E-02  7.811818058674E-02
  8.391414903812E-02  8.907129311261E-02  9.454538177047E-02  1.003558935966E-01
  1.065235042789E-01  1.117294072913E-01  1.171897276397E-01  1.229168989365E-01
  1.289239624366E-01  1.352245967329E-01  1.418331489041E-01  1.470006592726E-01
  1.523564413084E-01  1.579073544501E-01  1.636605080513E-01  1.696232704860E-01
  1.758032785853E-01  1.822084474188E-01  1.888469804314E-01  1.957273799500E-01
  2.028584580733E-01  2.102493479572E-01  2.153256082143E-01  2.205244296990E-01
  2.258487715297E-01  2.313016642695E-01  2.368862116516E-01  2.426055923457E-01
  2.484630617673E-01  2.544619539307E-01  2.606056833464E-01  2.668977469651E-01
  2.733417261678E-01  2.799412888044E-01  2.867001912813E-01  2.936222806996E-01
  3.007114970448E-01  3.079718754294E-01  3.154075483898E-01  3.230227482381E-01
  3.308218094716E-01  3.388091712395E-01  3.469893798699E-01  3.553670914575E-01
  3.639470745136E-01  3.727342126807E-01  3.817335075116E-01  3.909500813170E-01
  4.003891800803E-01  4.100561764442E-01  4.199565727682E-01  4.249960516415E-01
  4.300960042611E-01  4.352571563123E-01  4.404802421880E-01  4.457660050943E-01
  4.511151971554E-01  4.565285795213E-01  4.620069224755E-01  4.675510055452E-01
  4.731616176118E-01  4.788395570231E-01  4.845856317074E-01  4.904006592879E-01
  4.962854671994E-01  5.022408928057E-01  5.082677835194E-01  5.143669969216E-01
  5.205394008847E-01  5.267858736953E-01  5.331073041797E-01  5.395045918298E-01
  5.459786469318E-01  5.525303906950E-01  5.591607553833E-01  5.658706844479E-01
  5.726611326613E-01  5.795330662532E-01  5.864874630482E-01  5.935253126048E-01
  6.006476163561E-01  6.078553877524E-01  6.151496524054E-01  6.225314482343E-01
  6.300018256131E-01  6.375618475204E-01  6.452125896907E-01  6.529551407670E-01
  6.607906024562E-01  6.687200896856E-01  6.767447307619E-01  6.848656675310E-01
  6.930840555414E-01  7.014010642079E-01  7.098178769784E-01  7.183356915021E-01
  7.269557198001E-01  7.356791884377E-01  7.445073386990E-01  7.534414267634E-01
  7.624827238845E-01  7.716325165711E-01  7.808921067700E-01  7.902628120512E-01
  7.997459657959E-01  8.093429173854E-01  8.190550323940E-01  8.288836927828E-01
  8.388302970962E-01  8.488962606613E-01  8.590830157892E-01  8.693920119787E-01
  8.798247161225E-01  8.903826127159E-01  9.010672040685E-01  9.118800105173E-01
  9.228225706435E-01  9.338964414913E-01  9.451031987892E-01  9.564444371746E-01
  9.679217704207E-01  9.795368316658E-01  9.912912736458E-01  1.003186768930E+00
  1.015225010157E+00  1.027407710279E+00  1.039736602802E+00  1.052213442036E+00
  1.064840003340E+00  1.077618083380E+00  1.090549500381E+00  1.103636094385E+00
  1.116879727518E+00  1.130282284248E+00  1.143845671659E+00  1.157571819719E+00
  1.171462681555E+00  1.185520233734E+00  1.199746476539E+00  1.214143434257E+00
  1.228713155469E+00  1.243457713334E+00  1.258379205894E+00  1.273479756365E+00
  1.288761513441E+00  1.304226651603E+00  1.319877371422E+00  1.335715899879E+00
  1.351744490677E+00  1.367965424566E+00  1.384381009660E+00  1.400993581776E+00
  1.417805504758E+00  1.434819170815E+00  1.452037000864E+00  1.469461444875E+00
  1.487094982213E+00  1.504940122000E+00  1.522999403464E+00  1.541275396305E+00
  1.559770701061E+00  1.578487949474E+00  1.597429804868E+00  1.616598962526E+00
  1.635998150076E+00  1.655630127877E+00  1.675497689412E+00  1.695603661685E+00
  1.715950905625E+00  1.736542316492E+00  1.757380824290E+00  1.778469394182E+00
  1.799811026912E+00  1.821408759235E+00  1.843265664346E+00  1.865384852318E+00
  1.887769470546E+00  1.910422704192E+00  1.933347776642E+00  1.956547949962E+00
  1.980026525362E+00  2.003786843666E+00  2.027832285790E+00  2.052166273220E+00
  2.076792268498E+00  2.101713775720E+00  2.126934341029E+00  2.152457553121E+00
  2.178287043759E+00  2.204426488284E+00  2.230879606143E+00  2.257650161417E+00
  2.284741963354E+00  2.312158866914E+00  2.339904773317E+00  2.367983630597E+00
  2.396399434164E+00  2.425156227374E+00  2.454258102102E+00  2.483709199328E+00
  2.513513709720E+00  2.543675874236E+00  2.574199984727E+00  2.605090384544E+00
  2.636351469158E+00  2.667987686788E+00  2.700003539030E+00  2.732403581498E+00
  2.765192424476E+00  2.798374733570E+00  2.831955230373E+00  2.865938693137E+00
  2.900329957455E+00  2.935133916944E+00  2.970355523947E+00  3.005999790235E+00
  3.042071787718E+00  3.078576649170E+00  3.115519568960E+00  3.152905803788E+00
  3.190740673433E+00  3.229029561514E+00  3.267777916253E+00  3.306991251248E+00
  3.346675146263E+00  3.386835248018E+00  3.427477270994E+00  3.468606998246E+00
  3.510230282225E+00  3.552353045612E+00  3.594981282159E+00  3.638121057545E+00
  3.681778510235E+00  3.725959852358E+00  3.770671370587E+00  3.815919427034E+00
  3.861710460158E+00  3.908050985680E+00  3.954947597508E+00  4.002406968678E+00
  4.050435852302E+00  4.099041082530E+00  4.148229575520E+00  4.198008330426E+00
  4.248384430392E+00  4.299365043556E+00  4.350957424079E+00  4.403168913168E+00
  4.456006940126E+00  4.509479023407E+00  4.563592771688E+00  4.618355884949E+00
  4.673776155568E+00  4.729861469435E+00  4.786619807068E+00  4.844059244753E+00
  4.902187955690E+00  4.961014211158E+00  5.020546381692E+00  5.080792938272E+00
  5.141762453532E+00  5.203463602974E+00  5.265905166210E+00  5.329096028204E+00
  5.393045180543E+00  5.457761722709E+00  5.523254863382E+00  5.589533921742E+00
  5.656608328803E+00  5.724487628749E+00  5.793181480294E+00  5.862699658057E+00
  5.933052053954E+00  6.004248678601E+00  6.076299662745E+00  6.149215258698E+00
  6.223005841802E+00  6.297681911904E+00  6.373254094846E+00  6.449733143985E+00
  6.527129941712E+00  6.605455501013E+00  6.684720967025E+00  6.764937618629E+00
  6.846116870053E+00  6.928270272494E+00  7.011409515764E+00  7.095546429953E+00
  7.180692987112E+00  7.266861302957E+00  7.354063638593E+00  7.442312402256E+00
  7.531620151083E+00  7.621999592896E+00  7.713463588011E+00  7.806025151067E+00
  7.899697452880E+00  7.994493822314E+00  8.090427748182E+00  8.187512881160E+00
  8.285763035734E+00  8.385192192163E+00  8.485814498469E+00  8.587644272451E+00
  8.690696003720E+00  8.794984355765E+00  8.900524168034E+00  9.007330458050E+00
  9.115418423547E+00  9.224803444629E+00  9.335501085965E+00  9.447527098997E+00
  9.560897424185E+00  9.675628193275E+00  9.791735731594E+00  9.909236560373E+00
  1.002814739910E+01  1.014848516789E+01  1.027026698990E+01  1.039351019378E+01
  1.051823231611E+01  1.064445110390E+01  1.077218451715E+01  1.090145073135E+01
  1.103226814013E+01  1.116465535781E+01  1.129863122210E+01  1.143421479677E+01
  1.157142537433E+01  1.171028247882E+01  1.185080586857E+01  1.199301553899E+01
  1.213693172546E+01  1.228257490616E+01  1.242996580504E+01  1.257912539470E+01
  1.273007489943E+01  1.288283579823E+01  1.303742982781E+01  1.319387898574E+01
  1.335220553357E+01  1.351243199997E+01  1.367458118397E+01  1.383867615818E+01
  1.400474027208E+01  1.417279715534E+01  1.434287072121E+01  1.451498516986E+01
  1.468916499190E+01  1.486543497180E+01  1.504382019146E+01  1.522434603376E+01
  1.540703818617E+01  1.559192264440E+01  1.577902571613E+01  1.596837402473E+01
  1.615999451302E+01  1.635391444718E+01  1.655016142055E+01  1.674876335759E+01
  1.694974851788E+01  1.715314550010E+01  1.735898324610E+01  1.756729104505E+01
  1.777809853759E+01  1.799143572004E+01  1.820733294868E+01  1.842582094407E+01
  1.864693079540E+01  1.887069396494E+01  1.909714229252E+01  1.932630800003E+01
  1.955822369603E+01  1.979292238038E+01  2.003043744895E+01  2.027080269834E+01
  2.051405233072E+01  2.076022095868E+01  2.100934361019E+01  2.126145573351E+01
  2.151659320231E+01  2.177479232074E+01  2.203608982859E+01  2.230052290653E+01
  2.256812918141E+01  2.283894673159E+01  2.311301409237E+01  2.339037026148E+01
  2.367105470461E+01  2.395510736107E+01  2.424256864940E+01  2.453347947319E+01
  2.482788122687E+01  2.512581580160E+01  2.542732559121E+01  2.573245349831E+01
  2.604124294029E+01  2.635373785557E+01  2.666998270984E+01  2.699002250236E+01
  2.731390277239E+01  2.764166960565E+01  2.797336964092E+01  2.830905007661E+01
  2.864875867753E+01  2.899254378166E+01  2.934045430704E+01  2.969253975873E+01
  3.004885023583E+01  3.040943643866E+01  3.077434967593E+01  3.114364187204E+01
  3.151736557450E+01  3.189557396140E+01  3.227832084893E+01  3.266566069912E+01
  3.305764862751E+01  3.345434041104E+01  3.385579249597E+01  3.426206200592E+01
  3.467320674999E+01  3.508928523099E+01  3.551035665377E+01  3.593648093361E+01
  3.636771870482E+01  3.680413132927E+01  3.724578090522E+01  3.769273027609E+01
  3.814504303940E+01  3.860278355587E+01  3.906601695854E+01  3.953480916205E+01
  4.000922687199E+01  4.048933759445E+01  4.097520964559E+01  4.146691216133E+01
  4.196451510727E+01  4.246808928856E+01  4.297770636002E+01  4.349343883634E+01
  4.401536010238E+01
</grid-data>
</grid>
<valence-charge total-charge="20" is-unscreening-charge="yes"
 rescaled-to-z-pseudo="no">
<radfunc>
<data npts="457">
  1.571922429536E-01  1.587154605897E-01  1.632746104781E-01  1.708999803798E-01
  1.821322128459E-01  1.965386333185E-01  2.150203290213E-01  2.363495293342E-01
  2.605431600308E-01  2.890383759345E-01  3.215196973616E-01  3.572585890907E-01
  4.010517693932E-01  4.474877615527E-01  4.945851018350E-01  5.497080122345E-01
  6.143358965734E-01  6.767275785939E-01  7.481731610378E-01  8.301056538875E-01
  9.242067837894E-01  1.009565767069E+00  1.105139841886E+00  1.212260522596E+00
  1.332444277560E+00  1.467417807135E+00  1.619146051107E+00  1.745270302165E+00
  1.883121800141E+00  2.033856795127E+00  2.198744070310E+00  2.379173742389E+00
  2.576666054498E+00  2.792879929480E+00  3.029620980587E+00  3.288848591725E+00
  3.572681578685E+00  3.883401825005E+00  4.106687143179E+00  4.343770779345E+00
  4.595448512414E+00  4.862545835706E+00  5.145916049377E+00  5.446437701234E+00
  5.765011280520E+00  6.102555061186E+00  6.459999983391E+00  6.838283454757E+00
  7.238341946534E+00  7.661102254832E+00  8.107471293817E+00  8.578324286917E+00
  9.074491224276E+00  9.596741460727E+00  1.014576633928E+01  1.072215974149E+01
  1.132639648928E+01  1.195880855356E+01  1.261955906521E+01  1.330861417409E+01
  1.402571286312E+01  1.477033489868E+01  1.554166718553E+01  1.633856889545E+01
  1.715953585399E+01  1.800266479769E+01  1.886561825584E+01  1.930367167568E+01
  1.974559096173E+01  2.019094727362E+01  2.063927885761E+01  2.109009030772E+01
  2.154285191941E+01  2.199699914829E+01  2.245193218651E+01  2.290701567012E+01
  2.336157853120E+01  2.381491400867E+01  2.426627983203E+01  2.471489859242E+01
  2.515995831545E+01  2.560061325000E+01  2.603598488706E+01  2.646516322213E+01
  2.688720827433E+01  2.730115187418E+01  2.770599973142E+01  2.810073379271E+01
  2.848431489779E+01  2.885568574069E+01  2.921377414107E+01  2.955749662796E+01
  2.988576233622E+01  3.019747721284E+01  3.049154852747E+01  3.076688967806E+01
  3.102242527919E+01  3.125709651650E+01  3.146986674726E+01  3.165972732226E+01
  3.182570360058E+01  3.196686112386E+01  3.208231191262E+01  3.217122084247E+01
  3.223281205401E+01  3.226637534557E+01  3.227127249427E+01  3.224694344709E+01
  3.219291232012E+01  3.210879314168E+01  3.199429527229E+01  3.184922843327E+01
  3.167350727458E+01  3.146715541276E+01  3.123030887059E+01  3.096321885226E+01
  3.066625379062E+01  3.033990060765E+01  2.998476513431E+01  2.960157164280E+01
  2.919116145199E+01  2.875449057569E+01  2.829262639367E+01  2.780674333652E+01
  2.729811758745E+01  2.676812081719E+01  2.621821298166E+01  2.564993422606E+01
  2.506489595320E+01  2.446477112805E+01  2.385128390427E+01  2.322619867141E+01
  2.259130863398E+01  2.194842404397E+01  2.129936021816E+01  2.064592547854E+01
  1.998990915932E+01  1.933306982709E+01  1.867712386003E+01  1.802373452998E+01
  1.737450172466E+01  1.673095243933E+01  1.609453215463E+01  1.546659720358E+01
  1.484840821296E+01  1.424112468506E+01  1.364580076449E+01  1.306338221156E+01
  1.249470458051E+01  1.194049257657E+01  1.140136054286E+01  1.087781400587E+01
  1.037025218852E+01  9.878971383685E+00  9.404169070268E+00  8.945948647002E+00
  8.504325888427E+00  8.079244465681E+00  7.670593396034E+00  7.278210872569E+00
  6.901888566825E+00  6.541376702403E+00  6.196388783654E+00  5.866605863120E+00
  5.551680668256E+00  5.251241556655E+00  4.964896258396E+00  4.692235413760E+00
  4.432835898363E+00  4.186263932838E+00  3.952077975882E+00  3.729831401276E+00
  3.519074961157E+00  3.319359038928E+00  3.130235696910E+00  2.951260524975E+00
  2.781994296446E+00  2.622004439372E+00  2.470866331385E+00  2.328164426960E+00
  2.193493226250E+00  2.066458094947E+00  1.946675944746E+00  1.833775784079E+00
  1.727399148709E+00  1.627200421709E+00  1.532847052146E+00  1.444019681568E+00
  1.360412187105E+00  1.281731649673E+00  1.207698255391E+00  1.138045137961E+00
  1.072518169323E+00  1.010875705483E+00  9.528882939907E-01  8.983383490779E-01
  8.470198000520E-01  7.987377180967E-01  7.533079262021E-01  7.105565965336E-01
  6.703198391445E-01  6.324432855481E-01  5.967816702940E-01  5.631984133404E-01
  5.315652056818E-01  5.017616003745E-01  4.736746108142E-01  4.471983178416E-01
  4.222334870065E-01  3.986871970833E-01  3.764724807229E-01  3.555079779317E-01
  3.357176028948E-01  3.170302245047E-01  2.993793608160E-01  2.827028875242E-01
  2.669427604584E-01  2.520447519811E-01  2.379582011101E-01  2.246357771035E-01
  2.120332561951E-01  2.001093111140E-01  1.888253129880E-01  1.781451451942E-01
  1.680350287012E-01  1.584633584271E-01  1.494005501277E-01  1.408188973244E-01
  1.326924377775E-01  1.249968290146E-01  1.177092324314E-01  1.108082054866E-01
  1.042736015277E-01  9.808647679660E-02  9.222900417610E-02  8.668439325876E-02
  8.143681633208E-02  7.647133989449E-02  7.177386133345E-02  6.733105041576E-02
  6.313029525859E-02  5.915965246827E-02  5.540780115251E-02  5.186400052951E-02
  4.851805087536E-02  4.536025756842E-02  4.238139800076E-02  3.957269117456E-02
  3.692576973641E-02  3.443265432286E-02  3.208573002512E-02  2.987772482316E-02
  2.780168984580E-02  2.585098132236E-02  2.401924410008E-02  2.230039660823E-02
  2.068861715589E-02  1.917833145538E-02  1.776420126720E-02  1.644111406617E-02
  1.520417363146E-02  1.404869146619E-02  1.297017895554E-02  1.196434017544E-02
  1.102706526798E-02  1.015442430370E-02  9.342661555855E-03  8.588190117266E-03
  7.887586796204E-03  7.237587234051E-03  6.635081194286E-03  6.077107979046E-03
  5.560851936401E-03  5.083638028198E-03  4.642927434771E-03  4.236313178884E-03
  3.861515756880E-03  3.516378770030E-03  3.198864553539E-03  2.907049804431E-03
  2.639121212741E-03  2.393371102952E-03  2.168193094561E-03  1.962077792060E-03
  1.773608515434E-03  1.601457082739E-03  1.444379656280E-03  1.301212663601E-03
  1.170868803848E-03  1.052333149228E-03  9.446593502407E-04  8.469659522129E-04
  7.584328294438E-04  6.782977419877E-04  6.058530188597E-04  5.404423702220E-04
  4.814578299638E-04  4.283368290198E-04  3.805593988253E-04  3.376455034624E-04
  2.991524983469E-04  2.646727127159E-04  2.338311527131E-04  2.062833215236E-04
  1.817131527632E-04  1.598310531789E-04  1.403720506467E-04  1.230940434430E-04
  1.077761468123E-04  9.421713293239E-05  8.223396048518E-05  7.166039015905E-05
  6.234568253702E-05  5.415337494723E-05  4.696013397216E-05  4.065468042146E-05
  3.513678367190E-05  3.031632236362E-05  2.611240851730E-05  2.245257220180E-05
  1.927200393787E-05  1.651285207453E-05  1.412357241975E-05  1.205832745164E-05
  1.027643247917E-05  8.741846167209E-06  7.422702887941E-06  6.290884413151E-06
  5.321628518485E-06  4.493172132871E-06  3.786426733928E-06  3.184683763178E-06
  2.673347913077E-06  2.239696220782E-06  1.872660990548E-06  1.562634657073E-06
  1.301294795165E-06  1.081447575971E-06  8.968880659631E-07  7.422758610450E-07
  6.130246437881E-07  5.052043462976E-07  4.154546937950E-07  3.409089942151E-07
  2.791271264031E-07  2.280367634716E-07  1.858819481926E-07  1.511782136972E-07
  1.226735150397E-07  9.931430523575E-08  8.021615313640E-08  6.463835994317E-08
  5.196208634568E-08  4.167155324900E-08  3.333792597181E-08  2.660553478286E-08
  2.118012386901E-08  1.681885648157E-08  1.332183628592E-08  1.052493405051E-08
  8.293734967374E-09  6.518445309300E-09  5.109618011821E-09  3.994575318693E-09
  3.114335738640E-09  2.421314786460E-09  1.877468515455E-09  1.451705187333E-09
  1.119321451843E-09  8.605734193609E-10  6.597259907079E-10  5.042750493575E-10
  3.843129627159E-10  2.920125300296E-10  2.212085275007E-10  1.670594225622E-10
  1.257747361606E-10  9.439599318587E-11  7.062127798274E-11  5.266515818681E-11
  3.914720344630E-11  2.900354749935E-11  2.141695883925E-11  1.576172827818E-11
  1.156037831423E-11  8.449772720089E-12  6.154675262663E-12  4.467191046954E-12
  3.230837200234E-12  2.328243782783E-12  1.671691303351E-12  1.195856736828E-12
  8.522727650907E-13  6.051111458075E-13  4.279856777998E-13  3.015373187747E-13
  2.116170272088E-13  1.479236323543E-13  1.029867565240E-13  7.141036575846E-14
  4.931239868255E-14  3.391131773638E-14  2.322230258862E-14  1.583492864651E-14
  1.075115272545E-14  7.267744325102E-15  4.891333368369E-15  3.277290541409E-15
  2.185946103594E-15  1.451367051577E-15  9.591898347325E-16  6.309533881226E-16
  4.130769836416E-16  2.691417310775E-16  1.745108455199E-16  1.125977858550E-16
  7.228991723858E-17  4.617853447502E-17  2.934883619358E-17  1.855681351054E-17
  1.167214952707E-17  7.303079302559E-18  4.545078738669E-18  2.813385078694E-18
  1.731973083170E-18  1.060348832438E-18  6.455400373075E-19  3.907825666752E-19
  2.352096761470E-19  1.407515740050E-19  8.373347476021E-20  4.951788400783E-20
  2.910791563573E-20  1.700649308244E-20  9.875093467193E-21  5.698468870415E-21
  3.267629962587E-21  1.861797606711E-21  0.000000000000E+00  0.000000000000E+00
  0.000000000000E+00  0.000000000000E+00  0.000000000000E+00  0.000000000000E+00
  0.000000000000E+00  0.000000000000E+00  0.000000000000E+00  0.000000000000E+00
  0.000000000000E+00  0.000000000000E+00  0.000000000000E+00  0.000000000000E+00
  0.000000000000E+00  0.000000000000E+00  0.000000000000E+00  0.000000000000E+00
  0.000000000000E+00
</data>
</radfunc>
</valence-charge>
<pseudocore-charge matching-radius="0.579533066253"
 number-of-continuous-derivatives="4">
<annotation model-charge-form="Teter function with specified parameters" />
<radfunc>
<data npts="290">
  1.978697774888E+02  1.978401609320E+02  1.977516412826E+02  1.976040074447E+02
  1.973874868932E+02  1.971114028336E+02  1.967598425701E+02  1.963576956274E+02
  1.959060596961E+02  1.953800961180E+02  1.947881681700E+02  1.941458922889E+02
  1.933712067522E+02  1.925639283855E+02  1.917593145813E+02  1.908347870011E+02
  1.897731660442E+02  1.887698245270E+02  1.876453184918E+02  1.863858609513E+02
  1.849763227000E+02  1.837295682439E+02  1.823670644300E+02  1.808790605366E+02
  1.792551930671E+02  1.774844934334E+02  1.755554085991E+02  1.739973944667E+02
  1.723382024021E+02  1.705724049208E+02  1.686944598458E+02  1.666987389074E+02
  1.645795625929E+02  1.623312420117E+02  1.599481285776E+02  1.574246723352E+02
  1.547554897669E+02  1.519354419015E+02  1.499692062817E+02  1.479324538856E+02
  1.458239640357E+02  1.436426320877E+02  1.413874863103E+02  1.390577058992E+02
  1.366526401172E+02  1.341718285391E+02  1.316150223589E+02  1.289822066999E+02
  1.262736238416E+02  1.234897972497E+02  1.206315562691E+02  1.177000613000E+02
  1.146968292438E+02  1.116237589622E+02  1.084831564484E+02  1.052777593628E+02
  1.020107605315E+02  9.868582995763E+01  9.530713483620E+01  9.187935701285E+01
  8.840770726946E+01  8.489793577047E+01  8.135633795604E+01  7.778975512836E+01
  7.420556894681E+01  7.061168902995E+01  6.701653286029E+01  6.522123866610E+01
  6.342899720559E+01  6.164098926230E+01  5.985842031241E+01  5.808251879209E+01
  5.631453419701E+01  5.455573501095E+01  5.280740646082E+01  5.107084809675E+01
  4.934737119606E+01  4.763829599159E+01  4.594494872534E+01  4.426865852988E+01
  4.261075414089E+01  4.097256044594E+01  3.935539487552E+01  3.776056364414E+01
  3.618935785086E+01  3.464304945009E+01  3.312288710541E+01  3.163009194068E+01
  3.016585320480E+01  2.873132386815E+01  2.732761617049E+01  2.595579714239E+01
  2.461688412357E+01  2.331184030373E+01  2.204157031307E+01  2.080691589133E+01
  1.960865166579E+01  1.844748107005E+01  1.732403243668E+01  1.623885529778E+01
  1.519241692843E+01  1.418509916831E+01  1.321719555730E+01  1.228890882034E+01
  1.140034873677E+01  1.055153042803E+01  9.742373096664E+00  8.972699247396E+00
  8.242234419018E+00  7.550607452882E+00  6.897351320511E+00  6.281904528990E+00
  5.703613118396E+00  5.161733260665E+00  4.655434463870E+00  4.183803380020E+00
  3.745848208234E+00  3.340503678409E+00  2.966636593588E+00  2.623051901959E+00
  2.308499262102E+00  2.021680057658E+00  1.761254810302E+00  1.525850932740E+00
  1.314070756685E+00  1.124499764426E+00  9.557149469467E-01  8.062932066149E-01
  6.748197185266E-01  5.598961616786E-01  4.601487294959E-01  3.742358289355E-01
  3.008553785454E-01  2.387516185866E-01  1.867213506697E-01  1.436195303653E-01
  1.083641439111E-01  7.994030941466E-02  5.740355376167E-02  3.988222864749E-02
  2.657904258105E-02  1.677170013854E-02  9.812654900091E-03  5.127998071041E-03
  2.215520421002E-03  6.420004862170E-04  3.978657138508E-05  1.027535418368E-04
  5.817273040508E-04  1.279479835908E-03  2.045405282987E-03  2.769992665898E-03
  3.379212891210E-03  3.828936848253E-03  4.099497321083E-03  4.190500267600E-03
  4.115980846442E-03  3.899986653043E-03  3.572655321095E-03  3.166836426792E-03
  2.715289071379E-03  2.248467265052E-03  1.792886002710E-03  1.370042450362E-03
  9.958496881665E-04  6.805256822967E-04  4.288682075910E-04  2.408378291845E-04
  1.123661414811E-04  3.630545081632E-05  3.438973620419E-06  3.477199615552E-06
  2.597593049114E-05  6.112404965417E-05  1.003635466102E-04  1.368198266666E-04
  1.655359288017E-04  1.835189874108E-04  1.896201982040E-04  1.842798969401E-04
  1.691765263765E-04  1.468218794611E-04  1.201449617529E-04  9.210329395791E-05
  6.535393360270E-05  4.200763517246E-05  2.347928127927E-05  1.043700711903E-05
  2.842332063330E-06  6.505559949770E-08  1.050449606815E-06  4.512912924551E-06
  9.129964715162E-06  1.371312004762E-05  1.733736629388E-05  1.941791441392E-05
  1.973071076986E-05  1.838085320853E-05  1.572959103688E-05  1.229519989386E-05
  8.645181638463E-06  5.296767255377E-06  2.639794767231E-06  8.912415629794E-07
  8.482905296453E-08  0.000000000000E+00  0.000000000000E+00  0.000000000000E+00
  0.000000000000E+00  0.000000000000E+00  0.000000000000E+00  0.000000000000E+00
  0.000000000000E+00  0.000000000000E+00  0.000000000000E+00  0.000000000000E+00
  0.000000000000E+00  0.000000000000E+00  0.000000000000E+00  0.000000000000E+00
  0.000000000000E+00  0.000000000000E+00  0.000000000000E+00  0.000000000000E+00
  0.000000000000E+00  0.000000000000E+00  0.000000000000E+00  0.000000000000E+00
  0.000000000000E+00  0.000000000000E+00  0.000000000000E+00  0.000000000000E+00
  0.000000000000E+00  0.000000000000E+00  0.000000000000E+00  0.000000000000E+00
  0.000000000000E+00  0.000000000000E+00  0.000000000000E+00  0.000000000000E+00
  0.000000000000E+00  0.000000000000E+00  0.000000000000E+00  0.000000000000E+00
  0.000000000000E+00  0.000000000000E+00  0.000000000000E+00  0.000000000000E+00
  0.000000000000E+00  0.000000000000E+00  0.000000000000E+00  0.000000000000E+00
  0.000000000000E+00  0.000000000000E+00  0.000000000000E+00  0.000000000000E+00
  0.000000000000E+00  0.000000000000E+00  0.000000000000E+00  0.000000000000E+00
  0.000000000000E+00  0.000000000000E+00  0.000000000000E+00  0.000000000000E+00
  0.000000000000E+00  0.000000000000E+00  0.000000000000E+00  0.000000000000E+00
  0.000000000000E+00  0.000000000000E+00  0.000000000000E+00  0.000000000000E+00
  0.000000000000E+00  0.000000000000E+00  0.000000000000E+00  0.000000000000E+00
  0.000000000000E+00  0.000000000000E+00  0.000000000000E+00  0.000000000000E+00
  0.000000000000E+00  0.000000000000E+00  0.000000000000E+00  0.000000000000E+00
  0.000000000000E+00  0.000000000000E+00  0.000000000000E+00  0.000000000000E+00
  0.000000000000E+00  0.000000000000E+00
</data>
</radfunc>
</pseudocore-charge>
<semilocal-potentials set="lj">
<slps n="4" l="s" j="0.5" rc="1.21414343426" eref="-3.88592293039">
<radfunc>
<data npts="290">
  8.926384047602E+01  8.913846584430E+01  8.876510330004E+01  8.814693716928E+01
  8.725043685731E+01  8.612440615852E+01  8.471756671060E+01  8.314428489137E+01
  8.142156165480E+01  7.947187683543E+01  7.734721080107E+01  7.512104805630E+01
  7.253964083181E+01  6.996310889790E+01  6.750314370495E+01  6.480114628964E+01
  6.185141682234E+01  5.920300711945E+01  5.638364373725E+01  5.339824324088E+01
  5.025482619000E+01  4.763378374122E+01  4.492604570890E+01  4.214021504709E+01
  3.928614563383E+01  3.637483694427E+01  3.341829139545E+01  3.117888732924E+01
  2.892689222708E+01  2.666810065082E+01  2.440839383929E+01  2.215368161662E+01
  1.990984397470E+01  1.768267362937E+01  1.547782082046E+01  1.330074155108E+01
  1.115665034547E+01  9.050478453829E+00  7.669721902804E+00  6.309157251334E+00
  4.969994414406E+00  3.653369083272E+00  2.360340980002E+00  1.091892748276E+00
 -1.510705306048E-01 -1.367721213672E+00 -2.557308387015E+00 -3.719156598919E+00
 -4.852664067196E+00 -5.957300395893E+00 -7.032603839211E+00 -8.078178152475E+00
 -9.093689071331E+00 -1.007886046118E+01 -1.103347017918E+01 -1.195734569109E+01
 -1.285035948513E+01 -1.371242432438E+01 -1.454348837919E+01 -1.534353028068E+01
 -1.611255413662E+01 -1.685058455184E+01 -1.755766169612E+01 -1.823383646526E+01
 -1.887916578356E+01 -1.949370810025E+01 -2.007751913746E+01 -2.035791611732E+01
 -2.063064795330E+01 -2.089571915344E+01 -2.115313338989E+01 -2.140289341439E+01
 -2.164500098290E+01 -2.187945679004E+01 -2.210626041395E+01 -2.232541027226E+01
 -2.253690358982E+01 -2.274073637860E+01 -2.293690343036E+01 -2.312539832248E+01
 -2.330621343712E+01 -2.347933999399E+01 -2.364476809652E+01 -2.380248679136E+01
 -2.395248414078E+01 -2.409474730722E+01 -2.422926264934E+01 -2.435601582837E+01
 -2.447499192377E+01 -2.458617555665E+01 -2.468955101971E+01 -2.478510241229E+01
 -2.487281377914E+01 -2.495266925180E+01 -2.502465319185E+01 -2.508875033522E+01
 -2.514494593790E+01 -2.519322592315E+01 -2.523357703136E+01 -2.526598697406E+01
 -2.529044459411E+01 -2.530694003435E+01 -2.531546491777E+01 -2.531601254175E+01
 -2.530857808962E+01 -2.529315886213E+01 -2.526975453146E+01 -2.523836741983E+01
 -2.519900280430E+01 -2.515166924873E+01 -2.509637896337E+01 -2.503314819192E+01
 -2.496199762534E+01 -2.488295284133E+01 -2.479604476813E+01 -2.470131017093E+01
 -2.459879215950E+01 -2.448854071539E+01 -2.437061323773E+01 -2.424507510700E+01
 -2.411200026695E+01 -2.397147182578E+01 -2.382358267862E+01 -2.366843615519E+01
 -2.350614669731E+01 -2.333684057336E+01 -2.316065663792E+01 -2.297774714713E+01
 -2.278827864203E+01 -2.259243291385E+01 -2.239040806723E+01 -2.218241969864E+01
 -2.196870220869E+01 -2.174951026797E+01 -2.152512045661E+01 -2.129583309759E+01
 -2.106197430327E+01 -2.082389825306E+01 -2.058198971727E+01 -2.033666683853E+01
 -2.008838417628E+01 -1.983763601236E+01 -1.958495990554E+01 -1.933094046989E+01
 -1.907621333546E+01 -1.882146922964E+01 -1.856745809274E+01 -1.831499311251E+01
 -1.806495452793E+01 -1.781829301422E+01 -1.757603241775E+01 -1.733927156344E+01