<?xml version="1.0" encoding="UTF-8" ?>
<psml version="1.1" energy_unit="hartree" length_unit="bohr"
 uuid="46aeb3c0-539f-11e8-6ae1-63e3dbdb303b"
 xmlns="http://esl.cecam.org/PSML/ns/1.1">
<provenance creator="ONCVPSP-3.3.0+psml-3.3.0-73 (fully-relativistic)"
 date="2018-05-09">
<annotation action="semilocal-pseudopotential-generation"
 action-cont="projectors-generation" />
<input-file name="oncvpsp-input">
<![CDATA[# atsym z nc nv iexc psfile
Cd 48 6 4 -116133 upf
# n l f
1 0 2.0
2 0 2.0
2 1 6.0
3 0 2.0
3 1 6.0
3 2 10.0
4 0 2.0
4 1 6.0
4 2 10.0
5 0 2.0
# lmax
2
# l rc ep ncon nbas qcut
0 1.25 0.0 4 8 10.0
1 1.3 0.0 4 8 10.0
2 1.35 0.0 4 8 10.0
# lloc lpopt rc5 dvloc0
4 5 1.25 0.0
# l nproj debl
0 2 2.0
1 2 2.0
2 2 2.0
# icmod fcfact
3 6 1.26
# epsh1 epsh2 depsh
-12.0 12.0 0.02
# rlmax drl
6.0 0.01
 0
]]>
</input-file>
</provenance>
<pseudo-atom-spec atomic-label="Cd" atomic-number="48" z-pseudo="20"
 flavor="Hamann&apos;s oncvpsp" relativity="dirac" spin-dft="no"
 core-corrections="yes">
<annotation pseudo-energy="-166.132913602" />
<exchange-correlation>
<annotation oncvpsp-xc-code="-116133" oncvpsp-xc-type="libxc-interface" />
<libxc-info number-of-functionals="2">
<functional name="Perdew, Burke &amp; Ernzerhof SOL (GGA)" type="exchange"
 id="116" />
<functional name="Perdew, Burke &amp; Ernzerhof SOL (GGA)" type="correlation"
 id="133" />
</libxc-info>
</exchange-correlation>
<valence-configuration total-valence-charge="20">
<shell n="4" l="s" occupation="2" />
<shell n="4" l="p" occupation="6" />
<shell n="4" l="d" occupation="10" />
<shell n="5" l="s" occupation="2" />
</valence-configuration>
</pseudo-atom-spec>
<grid npts="457">
<annotation type="sampled from oncvpsp log grid"
 recipe="r(i:1..N) = r1*exp(a*(i-1)) + r=0; resampled"
 recipe-cont="r1: scale; a: step" scale="0.104166666667E-04"
 step="0.119285708653E-01" delta="0.500000000000E-02" rmax="44.0153601024" />
<grid-data>
  0.000000000000E+00  5.026136093974E-03  1.003931241072E-02  1.506056948927E-02
  2.029337154766E-02  2.545563554462E-02  3.080861283122E-02  3.597649143716E-02
  4.102083010503E-02  4.621783200185E-02  5.145578192561E-02  5.660806138672E-02
  6.227623979354E-02  6.769957927664E-02  7.272254093181E-02  7.811818058674E-02
  8.391414903812E-02  8.907129311261E-02  9.454538177047E-02  1.003558935966E-01
  1.065235042789E-01  1.117294072913E-01  1.171897276397E-01  1.229168989365E-01
  1.289239624366E-01  1.352245967329E-01  1.418331489041E-01  1.470006592726E-01
  1.523564413084E-01  1.579073544501E-01  1.636605080513E-01  1.696232704860E-01
  1.758032785853E-01  1.822084474188E-01  1.888469804314E-01  1.957273799500E-01
  2.028584580733E-01  2.102493479572E-01  2.153256082143E-01  2.205244296990E-01
  2.258487715297E-01  2.313016642695E-01  2.368862116516E-01  2.426055923457E-01
  2.484630617673E-01  2.544619539307E-01  2.606056833464E-01  2.668977469651E-01
  2.733417261678E-01  2.799412888044E-01  2.867001912813E-01  2.936222806996E-01
  3.007114970448E-01  3.079718754294E-01  3.154075483898E-01  3.230227482381E-01
  3.308218094716E-01  3.388091712395E-01  3.469893798699E-01  3.553670914575E-01
  3.639470745136E-01  3.727342126807E-01  3.817335075116E-01  3.909500813170E-01
  4.003891800803E-01  4.100561764442E-01  4.199565727682E-01  4.249960516415E-01
  4.300960042611E-01  4.352571563123E-01  4.404802421880E-01  4.457660050943E-01
  4.511151971554E-01  4.565285795213E-01  4.620069224755E-01  4.675510055452E-01
  4.731616176118E-01  4.788395570231E-01  4.845856317074E-01  4.904006592879E-01
  4.962854671994E-01  5.022408928057E-01  5.082677835194E-01  5.143669969216E-01
  5.205394008847E-01  5.267858736953E-01  5.331073041797E-01  5.395045918298E-01
  5.459786469318E-01  5.525303906950E-01  5.591607553833E-01  5.658706844479E-01
  5.726611326613E-01  5.795330662532E-01  5.864874630482E-01  5.935253126048E-01
  6.006476163561E-01  6.078553877524E-01  6.151496524054E-01  6.225314482343E-01
  6.300018256131E-01  6.375618475204E-01  6.452125896907E-01  6.529551407670E-01
  6.607906024562E-01  6.687200896856E-01  6.767447307619E-01  6.848656675310E-01
  6.930840555414E-01  7.014010642079E-01  7.098178769784E-01  7.183356915021E-01
  7.269557198001E-01  7.356791884377E-01  7.445073386990E-01  7.534414267634E-01
  7.624827238845E-01  7.716325165711E-01  7.808921067700E-01  7.902628120512E-01
  7.997459657959E-01  8.093429173854E-01  8.190550323940E-01  8.288836927828E-01
  8.388302970962E-01  8.488962606613E-01  8.590830157892E-01  8.693920119787E-01
  8.798247161225E-01  8.903826127159E-01  9.010672040685E-01  9.118800105173E-01
  9.228225706435E-01  9.338964414913E-01  9.451031987892E-01  9.564444371746E-01
  9.679217704207E-01  9.795368316658E-01  9.912912736458E-01  1.003186768930E+00
  1.015225010157E+00  1.027407710279E+00  1.039736602802E+00  1.052213442036E+00
  1.064840003340E+00  1.077618083380E+00  1.090549500381E+00  1.103636094385E+00
  1.116879727518E+00  1.130282284248E+00  1.143845671659E+00  1.157571819719E+00
  1.171462681555E+00  1.185520233734E+00  1.199746476539E+00  1.214143434257E+00
  1.228713155469E+00  1.243457713334E+00  1.258379205894E+00  1.273479756365E+00
  1.288761513441E+00  1.304226651603E+00  1.319877371422E+00  1.335715899879E+00
  1.351744490677E+00  1.367965424566E+00  1.384381009660E+00  1.400993581776E+00
  1.417805504758E+00  1.434819170815E+00  1.452037000864E+00  1.469461444875E+00
  1.487094982213E+00  1.504940122000E+00  1.522999403464E+00  1.541275396305E+00
  1.559770701061E+00  1.578487949474E+00  1.597429804868E+00  1.616598962526E+00
  1.635998150076E+00  1.655630127877E+00  1.675497689412E+00  1.695603661685E+00
  1.715950905625E+00  1.736542316492E+00  1.757380824290E+00  1.778469394182E+00
  1.799811026912E+00  1.821408759235E+00  1.843265664346E+00  1.865384852318E+00
  1.887769470546E+00  1.910422704192E+00  1.933347776642E+00  1.956547949962E+00
  1.980026525362E+00  2.003786843666E+00  2.027832285790E+00  2.052166273220E+00
  2.076792268498E+00  2.101713775720E+00  2.126934341029E+00  2.152457553121E+00
  2.178287043759E+00  2.204426488284E+00  2.230879606143E+00  2.257650161417E+00
  2.284741963354E+00  2.312158866914E+00  2.339904773317E+00  2.367983630597E+00
  2.396399434164E+00  2.425156227374E+00  2.454258102102E+00  2.483709199328E+00
  2.513513709720E+00  2.543675874236E+00  2.574199984727E+00  2.605090384544E+00
  2.636351469158E+00  2.667987686788E+00  2.700003539030E+00  2.732403581498E+00
  2.765192424476E+00  2.798374733570E+00  2.831955230373E+00  2.865938693137E+00
  2.900329957455E+00  2.935133916944E+00  2.970355523947E+00  3.005999790235E+00
  3.042071787718E+00  3.078576649170E+00  3.115519568960E+00  3.152905803788E+00
  3.190740673433E+00  3.229029561514E+00  3.267777916253E+00  3.306991251248E+00
  3.346675146263E+00  3.386835248018E+00  3.427477270994E+00  3.468606998246E+00
  3.510230282225E+00  3.552353045612E+00  3.594981282159E+00  3.638121057545E+00
  3.681778510235E+00  3.725959852358E+00  3.770671370587E+00  3.815919427034E+00
  3.861710460158E+00  3.908050985680E+00  3.954947597508E+00  4.002406968678E+00
  4.050435852302E+00  4.099041082530E+00  4.148229575520E+00  4.198008330426E+00
  4.248384430392E+00  4.299365043556E+00  4.350957424079E+00  4.403168913168E+00
  4.456006940126E+00  4.509479023407E+00  4.563592771688E+00  4.618355884949E+00
  4.673776155568E+00  4.729861469435E+00  4.786619807068E+00  4.844059244753E+00
  4.902187955690E+00  4.961014211158E+00  5.020546381692E+00  5.080792938272E+00
  5.141762453532E+00  5.203463602974E+00  5.265905166210E+00  5.329096028204E+00
  5.393045180543E+00  5.457761722709E+00  5.523254863382E+00  5.589533921742E+00
  5.656608328803E+00  5.724487628749E+00  5.793181480294E+00  5.862699658057E+00
  5.933052053954E+00  6.004248678601E+00  6.076299662745E+00  6.149215258698E+00
  6.223005841802E+00  6.297681911904E+00  6.373254094846E+00  6.449733143985E+00
  6.527129941712E+00  6.605455501013E+00  6.684720967025E+00  6.764937618629E+00
  6.846116870053E+00  6.928270272494E+00  7.011409515764E+00  7.095546429953E+00
  7.180692987112E+00  7.266861302957E+00  7.354063638593E+00  7.442312402256E+00
  7.531620151083E+00  7.621999592896E+00  7.713463588011E+00  7.806025151067E+00
  7.899697452880E+00  7.994493822314E+00  8.090427748182E+00  8.187512881160E+00
  8.285763035734E+00  8.385192192163E+00  8.485814498469E+00  8.587644272451E+00
  8.690696003720E+00  8.794984355765E+00  8.900524168034E+00  9.007330458050E+00
  9.115418423547E+00  9.224803444629E+00  9.335501085965E+00  9.447527098997E+00
  9.560897424185E+00  9.675628193275E+00  9.791735731594E+00  9.909236560373E+00
  1.002814739910E+01  1.014848516789E+01  1.027026698990E+01  1.039351019378E+01
  1.051823231611E+01  1.064445110390E+01  1.077218451715E+01  1.090145073135E+01
  1.103226814013E+01  1.116465535781E+01  1.129863122210E+01  1.143421479677E+01
  1.157142537433E+01  1.171028247882E+01  1.185080586857E+01  1.199301553899E+01
  1.213693172546E+01  1.228257490616E+01  1.242996580504E+01  1.257912539470E+01
  1.273007489943E+01  1.288283579823E+01  1.303742982781E+01  1.319387898574E+01
  1.335220553357E+01  1.351243199997E+01  1.367458118397E+01  1.383867615818E+01
  1.400474027208E+01  1.417279715534E+01  1.434287072121E+01  1.451498516986E+01
  1.468916499190E+01  1.486543497180E+01  1.504382019146E+01  1.522434603376E+01
  1.540703818617E+01  1.559192264440E+01  1.577902571613E+01  1.596837402473E+01
  1.615999451302E+01  1.635391444718E+01  1.655016142055E+01  1.674876335759E+01
  1.694974851788E+01  1.715314550010E+01  1.735898324610E+01  1.756729104505E+01
  1.777809853759E+01  1.799143572004E+01  1.820733294868E+01  1.842582094407E+01
  1.864693079540E+01  1.887069396494E+01  1.909714229252E+01  1.932630800003E+01
  1.955822369603E+01  1.979292238038E+01  2.003043744895E+01  2.027080269834E+01
  2.051405233072E+01  2.076022095868E+01  2.100934361019E+01  2.126145573351E+01
  2.151659320231E+01  2.177479232074E+01  2.203608982859E+01  2.230052290653E+01
  2.256812918141E+01  2.283894673159E+01  2.311301409237E+01  2.339037026148E+01
  2.367105470461E+01  2.395510736107E+01  2.424256864940E+01  2.453347947319E+01
  2.482788122687E+01  2.512581580160E+01  2.542732559121E+01  2.573245349831E+01
  2.604124294029E+01  2.635373785557E+01  2.666998270984E+01  2.699002250236E+01
  2.731390277239E+01  2.764166960565E+01  2.797336964092E+01  2.830905007661E+01
  2.864875867753E+01  2.899254378166E+01  2.934045430704E+01  2.969253975873E+01
  3.004885023583E+01  3.040943643866E+01  3.077434967593E+01  3.114364187204E+01
  3.151736557450E+01  3.189557396140E+01  3.227832084893E+01  3.266566069912E+01
  3.305764862751E+01  3.345434041104E+01  3.385579249597E+01  3.426206200592E+01
  3.467320674999E+01  3.508928523099E+01  3.551035665377E+01  3.593648093361E+01
  3.636771870482E+01  3.680413132927E+01  3.724578090522E+01  3.769273027609E+01
  3.814504303940E+01  3.860278355587E+01  3.906601695854E+01  3.953480916205E+01
  4.000922687199E+01  4.048933759445E+01  4.097520964559E+01  4.146691216133E+01
  4.196451510727E+01  4.246808928856E+01  4.297770636002E+01  4.349343883634E+01
  4.401536010238E+01
</grid-data>
</grid>
<valence-charge total-charge="20" is-unscreening-charge="yes"
 rescaled-to-z-pseudo="no">
<radfunc>
<data npts="457">
  6.090644758837E-01  6.115738806579E-01  6.190777523008E-01  6.316048576942E-01
  6.500045288413E-01  6.735130842920E-01  7.035252280867E-01  7.379615914142E-01
  7.767705989389E-01  8.221469123184E-01  8.734470412218E-01  9.293907182527E-01
  9.972571854703E-01  1.068434539400E+00  1.139842188815E+00  1.222468769545E+00
  1.318113500065E+00  1.409265613077E+00  1.512307469175E+00  1.628831407730E+00
  1.760652166974E+00  1.878503888599E+00  2.008657278182E+00  2.152438541041E+00
  2.311322835940E+00  2.486951255801E+00  2.681149422151E+00  2.840197492208E+00
  3.011767412041E+00  3.196874963739E+00  3.396618098347E+00  3.612182209883E+00
  3.844845127116E+00  4.095981545325E+00  4.367066523979E+00  4.659677556593E+00
  4.975494573736E+00  5.316297068164E+00  5.558300640359E+00  5.812814726508E+00
  6.080428596634E+00  6.361742471123E+00  6.657363837603E+00  6.967902887960E+00
  7.293966963587E+00  7.636153897294E+00  7.995044145414E+00  8.371191614942E+00
  8.765113109641E+00  9.177276347307E+00  9.608086539488E+00  1.005787157598E+01
  1.052686592023E+01  1.101519339842E+01  1.152284915334E+01  1.204968113187E+01
  1.259537157759E+01  1.315941910122E+01  1.374112199259E+01  1.433956350708E+01
  1.495359989383E+01  1.558185191760E+01  1.622270054592E+01  1.687428731640E+01
  1.753451965757E+01  1.820108111268E+01  1.887144602433E+01  1.920721274901E+01
  1.954289781254E+01  1.987813519509E+01  2.021254957283E+01  2.054575697533E+01
  2.087736541469E+01  2.120697547476E+01  2.153418085138E+01  2.185856883788E+01
  2.217972075409E+01  2.249721232329E+01  2.281061400728E+01  2.311949131785E+01
  2.342340513120E+01  2.372191204075E+01  2.401456479346E+01  2.430091286398E+01
  2.458050322956E+01  2.485288141657E+01  2.511759289443E+01  2.537418489609E+01
  2.562220874278E+01  2.586122274528E+01  2.609079574263E+01  2.631051132129E+01
  2.651997273247E+01  2.671880849216E+01  2.690667860670E+01  2.708328131718E+01
  2.724836019797E+01  2.740171138110E+01  2.754319060911E+01  2.767271974829E+01
  2.779029232473E+01  2.789597758209E+01  2.798992250682E+01  2.807235123088E+01
  2.814356120875E+01  2.820391558236E+01  2.825383120092E+01  2.829376185787E+01
  2.832417645004E+01  2.834553195726E+01  2.835824138451E+01  2.836263710183E+01
  2.835893035197E+01  2.834716806288E+01  2.832718848557E+01  2.829857755738E+01
  2.826062824250E+01  2.821230539546E+01  2.815221889960E+01  2.807860791707E+01
  2.798933901947E+01  2.788192072101E+01  2.775353648830E+01  2.760109764252E+01
  2.742131670448E+01  2.721080067965E+01  2.696616257770E+01  2.668414816630E+01
  2.636177364808E+01  2.599646871523E+01  2.558621838186E+01  2.512969622775E+01
  2.462638131234E+01  2.407665112371E+01  2.348184357488E+01  2.284428227528E+01
  2.216726106548E+01  2.145498603405E+01  2.071247580664E+01  1.994542362849E+01
  1.916002743379E+01  1.836279646590E+01  1.756034484187E+01  1.675918353300E+01
  1.596552240740E+01  1.518509318455E+01  1.442300242117E+01  1.368362113138E+01
  1.297051459503E+01  1.228641266035E+01  1.163321777691E+01  1.101204546761E+01
  1.042329025985E+01  9.866709421210E+00  9.341517192192E+00  8.846483410849E+00
  8.380032150684E+00  7.940337805499E+00  7.525417488477E+00  7.133219727244E+00
  6.761710968128E+00  6.408962340314E+00  6.073238007198E+00  5.753090611165E+00
  5.447455732146E+00  5.155704580151E+00  4.877533695509E+00  4.612622301303E+00
  4.360508662095E+00  4.120789563558E+00  3.893036107864E+00  3.676817031683E+00
  3.471698414089E+00  3.277246032685E+00  3.093027354725E+00  2.918613328469E+00
  2.753579986684E+00  2.597509870105E+00  2.449993278541E+00  2.310629358552E+00
  2.179027036714E+00  2.054805807762E+00  1.937596387049E+00  1.827041236810E+00
  1.722794975676E+00  1.624524680780E+00  1.531910091596E+00  1.444643724455E+00
  1.362430906348E+00  1.284989736341E+00  1.212050982547E+00  1.143357922206E+00
  1.078666132049E+00  1.017743235654E+00  9.603686141230E-01  9.063330859286E-01
  8.554385613808E-01  8.074976767165E-01  7.623334123985E-01  7.197786998011E-01
  6.796760200611E-01  6.418769984933E-01  6.062419976019E-01  5.726397113767E-01
  5.409467632323E-01  5.110473096466E-01  4.828326512627E-01  4.562008529584E-01
  4.310563741369E-01  4.073097102701E-01  3.848770465193E-01  3.636799240714E-01
  3.436449196597E-01  3.247033385877E-01  3.067909214413E-01  2.898475645533E-01
  2.738170541832E-01  2.586468142807E-01  2.442876676300E-01  2.306936100976E-01
  2.178215976600E-01  2.056313458341E-01  1.940851411033E-01  1.831476638988E-01
  1.727858226776E-01  1.629685986218E-01  1.536669004756E-01  1.448534290321E-01
  1.365025507810E-01  1.285901802344E-01  1.210936704516E-01  1.139917112973E-01
  1.072642349757E-01  1.008923284008E-01  9.485815197396E-02  8.914486436053E-02
  8.373655287144E-02  7.861816907524E-02  7.377546928376E-02  6.919495957321E-02
  6.486384502143E-02  6.076998286008E-02  5.690183925944E-02  5.324844948122E-02
  4.979938115258E-02  4.654470043154E-02  4.347494084546E-02  4.058107463157E-02
  3.785448634341E-02  3.528694860744E-02  3.287059984762E-02  3.059792383859E-02
  2.846173095333E-02  2.645514098025E-02  2.457156739257E-02  2.280470295926E-02
  2.114850659252E-02  1.959719133099E-02  1.814521336187E-02  1.678726198803E-02
  1.551825044904E-02  1.433330750770E-02  1.322776971641E-02  1.219717428070E-02
  1.123725244082E-02  1.034392329628E-02  9.513288002708E-03  8.741624275992E-03
  8.025381143866E-03  7.361173891738E-03  6.745779155791E-03  6.176130123117E-03
  5.649311805322E-03  5.162556358565E-03  4.713238429289E-03  4.298870510797E-03
  3.917098301202E-03  3.565696058172E-03  3.242561950097E-03  2.945713406915E-03
  2.673282476811E-03  2.423511197326E-03  2.194746991169E-03  1.985438098198E-03
  1.794129055713E-03  1.619456239469E-03  1.460143477584E-03  1.314997749096E-03
  1.182904978087E-03  1.062825933357E-03  9.537922424331E-04  8.549025274856E-04
  7.653186693612E-04  6.842622046285E-04  6.110108591887E-04  5.448952207374E-04
  4.852955511634E-04  4.316387388739E-04  3.833953900528E-04  3.400770570044E-04
  3.012336010107E-04  2.664506865374E-04  2.353474031619E-04  2.075740112488E-04
  1.828098071648E-04  1.607611036830E-04  1.411593211678E-04  1.237591851393E-04
  1.083370258714E-04  9.468917578036E-05  8.263046047596E-05  7.199277948867E-05
  6.262377282714E-05  5.438556966174E-05  4.715361556521E-05  4.081557486698E-05
  3.527030479146E-05  3.042689815224E-05  2.620379146411E-05  2.252793541409E-05
  1.933402470267E-05  1.656378433033E-05  1.416530946229E-05  1.209245606074E-05
  1.030427952823E-05  8.764518662140E-06  7.441122277729E-06  6.305815919201E-06
  5.333706143609E-06  4.502919932978E-06  3.794276865300E-06  3.190991755231E-06
  2.678405560135E-06  2.243742436069E-06  1.875890920877E-06  1.565207317042E-06
  1.303339444599E-06  1.083069033512E-06  8.981711245723E-07  7.432889474707E-07
  6.138228433754E-07  5.058318965164E-07  4.159470342855E-07  3.412944476872E-07
  2.794282731399E-07  2.282715622470E-07  1.860646479102E-07  1.513200928113E-07
  1.227834796652E-07  9.939937163912E-08  8.028183590346E-08  6.468898341741E-08
  5.200103383035E-08  4.170146587370E-08  3.336086096644E-08  2.662309110957E-08
  2.119354168126E-08  1.682909565701E-08  1.332963827556E-08  1.053087046419E-08
  8.298245643855E-09  6.521868073062E-09  5.112211875358E-09  3.996538531580E-09
  3.115907127012E-09  2.422495667797E-09  1.878355357838E-09  1.452065715856E-09
  1.119603534774E-09  8.607934853972E-10  6.598971712819E-10  5.044078093348E-10
  3.844156169497E-10  2.920916651228E-10  2.212693450978E-10  1.671060178922E-10
  1.258103233268E-10  9.442308680136E-11  7.064183913727E-11  5.268071136754E-11
  3.915892988422E-11  2.901235944726E-11  2.142355847822E-11  1.576665427551E-11
  1.156404249559E-11  8.452488855207E-12  6.156681581670E-12  4.468667790779E-12
  3.231920251492E-12  2.329035214411E-12  1.672267512256E-12  1.196274692369E-12
  8.525747914916E-13  6.053285687239E-13  4.281415942569E-13  3.016486931345E-13
  2.116962709995E-13  1.479797903893E-13  1.030263938935E-13  7.143822846953E-14
  4.933190371336E-14  3.392491506104E-14  2.323174151106E-14  1.584145291444E-14
  1.075564286255E-14  7.270821014174E-15  4.893432217771E-15  3.278715918579E-15
  2.186909724196E-15  1.452015516860E-15  9.596241929968E-16  6.312429665392E-16
  4.132691231924E-16  2.692686058500E-16  1.745942168720E-16  1.126523008917E-16
  7.232538617724E-17  4.620149525891E-17  2.936362406813E-17  1.856628850381E-17
  1.167818872721E-17  7.306908257192E-18  4.547493387068E-18  2.814899590719E-18
  1.732917815152E-18  1.060934880397E-18  6.459015450305E-19  3.910043009181E-19
  2.353448987364E-19  1.408335595315E-19  8.378289062432E-20  4.954749181825E-20
  2.912554862454E-20  1.701693052209E-20  9.881233613008E-21  5.702058485528E-21
  3.269715264331E-21  1.863001281026E-21  0.000000000000E+00  0.000000000000E+00
  0.000000000000E+00  0.000000000000E+00  0.000000000000E+00  0.000000000000E+00
  0.000000000000E+00  0.000000000000E+00  0.000000000000E+00  0.000000000000E+00
  0.000000000000E+00  0.000000000000E+00  0.000000000000E+00  0.000000000000E+00
  0.000000000000E+00  0.000000000000E+00  0.000000000000E+00  0.000000000000E+00
  0.000000000000E+00
</data>
</radfunc>
</valence-charge>
<pseudocore-charge matching-radius="0.593525312605"
 number-of-continuous-derivatives="4">
<annotation model-charge-form="Teter function with specified parameters" />
<radfunc>
<data npts="290">
  1.663745258370E+02  1.663507836183E+02  1.662798206004E+02  1.661614647806E+02
  1.659878765420E+02  1.657665231634E+02  1.654846363349E+02  1.651621613131E+02
  1.647999675132E+02  1.643781199871E+02  1.639033066253E+02  1.633880355259E+02
  1.627664386112E+02  1.621185739059E+02  1.614727295028E+02  1.607304868999E+02
  1.598779870737E+02  1.590720949805E+02  1.581686598535E+02  1.571565225573E+02
  1.560234209011E+02  1.550208631431E+02  1.539248865625E+02  1.527275497416E+02
  1.514203961584E+02  1.499944560704E+02  1.484402581177E+02  1.471844723335E+02
  1.458465923310E+02  1.444221298584E+02  1.429064868144E+02  1.412949761308E+02
  1.395828475029E+02  1.377653185851E+02  1.358376123069E+02  1.337950009923E+02
  1.316328579810E+02  1.293467174548E+02  1.277516325383E+02  1.260983658138E+02
  1.243858065819E+02  1.226129284624E+02  1.207788026391E+02  1.188826120528E+02
  1.169236665477E+02  1.149014189657E+02  1.128154821680E+02  1.106656469517E+02
  1.084519008080E+02  1.061744474522E+02  1.038337270293E+02  1.014304368760E+02
  9.896555268974E+01  9.644034992424E+01  9.385642519626E+01  9.121571745049E+01
  8.852052858936E+01  8.577354323182E+01  8.297784722056E+01  8.013694445152E+01
  7.725477155341E+01  7.433570989954E+01  7.138459439139E+01  6.840671841377E+01
  6.540783432776E+01  6.239414884210E+01  5.937231258863E+01  5.786053361693E+01
  5.634940322557E+01  5.483986890413E+01  5.333290140781E+01  5.182949357296E+01
  5.033065899815E+01  4.883743058739E+01  4.735085895212E+01  4.587201066949E+01
  4.440196639479E+01  4.294181882663E+01  4.149267052424E+01  4.005563157684E+01
  3.863181712638E+01  3.722234474522E+01  3.582833167207E+01  3.445089191000E+01
  3.309113319195E+01  3.175015382017E+01  3.042903938740E+01  2.912885938901E+01
  2.785066373679E+01  2.659547918635E+01  2.536430569192E+01  2.415811270371E+01
  2.297783542450E+01  2.182437104389E+01  2.069857496997E+01  1.960125708000E+01
  1.853317801274E+01  1.749504552683E+01  1.648751095090E+01  1.551116575188E+01
  1.456653824964E+01  1.365409050636E+01  1.277421542018E+01  1.192723405277E+01
  1.111339322078E+01  1.033286338109E+01  9.585736839290E+00  8.872026309918E+00
  8.191663856176E+00  7.544500235000E+00  6.930304671613E+00  6.348765085288E+00
  5.799488785225E+00  5.282003652241E+00  4.795759818270E+00  4.340131851560E+00
  3.914421450923E+00  3.517860647443E+00  3.149615506782E+00  2.808790319601E+00
  2.494432261727E+00  2.205536499676E+00  1.941051710886E+00  1.699885981860E+00
  1.480913041198E+00  1.282978778540E+00  1.104907994714E+00  9.455113230763E-01
  8.035922572491E-01  6.779542163468E-01  5.674075754277E-01  4.707765864977E-01
  3.869061139906E-01  3.146681083920E-01  2.529677426551E-01  2.007491383439E-01
  1.570006120974E-01  1.207593780551E-01  9.111564833068E-02  6.721608141941E-02
  4.826653751605E-02  3.353410998264E-02  2.234841350076E-02  1.410212157432E-02
  8.250758791586E-03  4.311766346485E-03  1.862872461902E-03  5.398122332630E-04
  3.345367864101E-05  8.639809483853E-05  4.891328307243E-04  1.075822966593E-03
  1.719834824804E-03  2.329088465200E-03  2.841338124561E-03  3.219478793945E-03
  3.446973719894E-03  3.523491580624E-03  3.460833535934E-03  3.279219486702E-03
  3.003990010854E-03  2.662765964553E-03  2.283092130059E-03  1.890575103640E-03
  1.507509445689E-03  1.151970583625E-03  8.373386869706E-04  5.722053117406E-04
  3.606045632136E-04  2.025032834358E-04  9.448064149216E-05  3.052665364829E-05
  2.891586642108E-06  2.923728143933E-06  2.184129973504E-05  5.139483607609E-05
  8.438851900734E-05  1.150419941623E-04  1.391873080008E-04  1.543079741639E-04
  1.594380453937E-04  1.549477684960E-04  1.422484257872E-04  1.234520040799E-04
  1.010212943939E-04  7.744306409371E-05  5.495144257363E-05  3.532121212270E-05
  1.974204620538E-05  8.775731860743E-06  2.389913484058E-06  5.470059478934E-08
  8.832478484965E-07  3.794585294908E-06  7.676733504588E-06  1.153038061003E-05
  1.457774973528E-05  1.632713365507E-05  1.659014171049E-05  1.545514315455E-05
  1.322588665932E-05  1.033815309429E-05  7.269114132175E-06  4.453672267521E-06
  2.219614376076E-06  7.493812058050E-07  7.132667577278E-08  0.000000000000E+00
  0.000000000000E+00  0.000000000000E+00  0.000000000000E+00  0.000000000000E+00
  0.000000000000E+00  0.000000000000E+00  0.000000000000E+00  0.000000000000E+00
  0.000000000000E+00  0.000000000000E+00  0.000000000000E+00  0.000000000000E+00
  0.000000000000E+00  0.000000000000E+00  0.000000000000E+00  0.000000000000E+00
  0.000000000000E+00  0.000000000000E+00  0.000000000000E+00  0.000000000000E+00
  0.000000000000E+00  0.000000000000E+00  0.000000000000E+00  0.000000000000E+00
  0.000000000000E+00  0.000000000000E+00  0.000000000000E+00  0.000000000000E+00
  0.000000000000E+00  0.000000000000E+00  0.000000000000E+00  0.000000000000E+00
  0.000000000000E+00  0.000000000000E+00  0.000000000000E+00  0.000000000000E+00
  0.000000000000E+00  0.000000000000E+00  0.000000000000E+00  0.000000000000E+00
  0.000000000000E+00  0.000000000000E+00  0.000000000000E+00  0.000000000000E+00
  0.000000000000E+00  0.000000000000E+00  0.000000000000E+00  0.000000000000E+00
  0.000000000000E+00  0.000000000000E+00  0.000000000000E+00  0.000000000000E+00
  0.000000000000E+00  0.000000000000E+00  0.000000000000E+00  0.000000000000E+00
  0.000000000000E+00  0.000000000000E+00  0.000000000000E+00  0.000000000000E+00
  0.000000000000E+00  0.000000000000E+00  0.000000000000E+00  0.000000000000E+00
  0.000000000000E+00  0.000000000000E+00  0.000000000000E+00  0.000000000000E+00
  0.000000000000E+00  0.000000000000E+00  0.000000000000E+00  0.000000000000E+00
  0.000000000000E+00  0.000000000000E+00  0.000000000000E+00  0.000000000000E+00
  0.000000000000E+00  0.000000000000E+00  0.000000000000E+00  0.000000000000E+00
  0.000000000000E+00  0.000000000000E+00
</data>
</radfunc>
</pseudocore-charge>
<semilocal-potentials set="lj">
<slps n="4" l="s" j="0.5" rc="1.25837920589" eref="-3.88592293039">
<radfunc>
<data npts="290">
  2.723169052595E+01  2.720203153486E+01  2.711352486496E+01  2.696637792246E+01
  2.675161727331E+01  2.647956580765E+01  2.613601003565E+01  2.574690759731E+01
  2.531479002682E+01  2.481793277491E+01  2.426680069241E+01  2.367820454406E+01
  2.298096976568E+01  2.226876963391E+01  2.157308082606E+01  2.079062338614E+01
  1.991369194932E+01  1.910532182945E+01  1.822202847793E+01  1.726008990699E+01
  1.621631618321E+01  1.532067786806E+01  1.437018692586E+01  1.336439859276E+01
  1.230335537825E+01  1.118764522558E+01  1.001845422446E+01  9.107539133919E+00
  8.168576038419E+00  7.202804769083E+00  6.211687425857E+00  5.196907988033E+00
  4.160368729970E+00  3.104183307141E+00  2.030666465673E+00  9.423204264500E-01
 -1.581819010871E-01 -1.268016614421E+00 -2.011637556981E+00 -2.757194392072E+00
 -3.503768156341E+00 -4.250426108890E+00 -4.996225286046E+00 -5.740216082962E+00
 -6.481445823290E+00 -7.218962278203E+00 -7.951817096807E+00 -8.679069111357E+00
 -9.399787482773E+00 -1.011305465452E+01 -1.081796908606E+01 -1.151364774049E+01
 -1.219922830474E+01 -1.287387112449E+01 -1.353676083956E+01 -1.418710770925E+01
 -1.482414861968E+01 -1.544714776802E+01 -1.605539701989E+01 -1.664821593721E+01
 -1.722495147377E+01 -1.778497733575E+01 -1.832769300347E+01 -1.885252241121E+01
 -1.935891228346E+01 -1.984633013099E+01 -2.031426191986E+01 -2.054076431155E+01
 -2.076220944301E+01 -2.097853703986E+01 -2.118968744849E+01 -2.139560153964E+01
 -2.159622061263E+01 -2.179148630197E+01 -2.198134048764E+01 -2.216572521116E+01
 -2.234458259915E+01 -2.251785479636E+01 -2.268548391031E+01 -2.284741196896E+01
 -2.300358089344E+01 -2.315393248668E+01 -2.329840843875E+01 -2.343695034875E+01
 -2.356949976240E+01 -2.369599822300E+01 -2.381638733280E+01 -2.393060881986E+01
 -2.403860460439E+01 -2.414031685715E+01 -2.423568804106E+01 -2.432466092612E+01
 -2.440717856738E+01 -2.448318423525E+01 -2.455262128870E+01 -2.461543298371E+01
 -2.467156221284E+01 -2.472095117729E+01 -2.476354100052E+01 -2.479927130293E+01
 -2.482807977056E+01 -2.484990176721E+01 -2.486467005798E+01 -2.487231473214E+01
 -2.487276343058E+01 -2.486594199416E+01 -2.485177564639E+01 -2.483019079953E+01
 -2.480111751703E+01 -2.476449257166E+01 -2.472026290737E+01 -2.466838915642E+01
 -2.460884871286E+01 -2.454163776743E+01 -2.446677172430E+01 -2.438428359371E+01
 -2.429422028997E+01 -2.419663720194E+01 -2.409159182109E+01 -2.397913746620E+01
 -2.385931814211E+01 -2.373216533340E+01 -2.359769721250E+01 -2.345592053488E+01
 -2.330683553064E+01 -2.315044431709E+01 -2.298676347074E+01 -2.281584101278E+01
 -2.263777690302E+01 -2.245274430741E+01 -2.226100704494E+01 -2.206292775914E+01
 -2.185896240684E+01 -2.164963975211E+01 -2.143552873593E+01 -2.121720016140E+01
 -2.099519058144E+01 -2.076997513925E+01 -2.054195315502E+01 -2.031144687811E+01
 -2.007871125238E+01 -1.984395130234E+01 -1.960734369234E+01 -1.936905964823E+01
 -1.912928727219E+01 -1.888825202616E+01 -1.864623470767E+01 -1.840358661892E+01
 -1.816074189826E+01 -1.791822719337E+01 -1.767666903268E+01 -1.743679940293E+01