<?xml version="1.0" encoding="UTF-8" ?>
<psml version="1.1" energy_unit="hartree" length_unit="bohr"
 uuid="c6fd2590-539d-11e8-7c73-ee37af7b0c39"
 xmlns="http://esl.cecam.org/PSML/ns/1.1">
<provenance creator="ONCVPSP-3.3.0+psml-3.3.0-73 (fully-relativistic)"
 date="2018-05-09">
<annotation action="semilocal-pseudopotential-generation"
 action-cont="projectors-generation" />
<input-file name="oncvpsp-input">
<![CDATA[# atsym z nc nv iexc psfile
H 1 0 1 -116133 upf
# n l f
1 0 1.0
# lmax
1
# l rc ep ncon nbas qcut
0 1.0 0.0 4 7 8.5
1 0.7 0.08 4 7 11.0
# lloc lpopt rc5 dvloc0
4 5 0.7 0.0
# l nproj debl
0 2 1.0
1 1 1.0
# icmod fcfact rcfact
0 0.25 0.0
# epsh1 epsh2 depsh
-12.0 12.0 0.02
# rlmax drl
3.0 0.01
 0
]]>
</input-file>
</provenance>
<pseudo-atom-spec atomic-label="H" atomic-number="1" z-pseudo="1"
 flavor="Hamann&apos;s oncvpsp" relativity="dirac" spin-dft="no"
 core-corrections="no">
<annotation pseudo-energy="-0.449757406781" />
<exchange-correlation>
<annotation oncvpsp-xc-code="-116133" oncvpsp-xc-type="libxc-interface" />
<libxc-info number-of-functionals="2">
<functional name="Perdew, Burke &amp; Ernzerhof SOL (GGA)" type="exchange"
 id="116" />
<functional name="Perdew, Burke &amp; Ernzerhof SOL (GGA)" type="correlation"
 id="133" />
</libxc-info>
</exchange-correlation>
<valence-configuration total-valence-charge="1">
<shell n="1" l="s" occupation="1" />
</valence-configuration>
</pseudo-atom-spec>
<grid npts="457">
<annotation type="sampled from oncvpsp log grid"
 recipe="r(i:1..N) = r1*exp(a*(i-1)) + r=0; resampled"
 recipe-cont="r1: scale; a: step" scale="0.500000000000E-03"
 step="0.119285708653E-01" delta="0.500000000000E-02" rmax="44.2954833909" />
<grid-data>
  0.000000000000E+00  5.058123513090E-03  1.010320477012E-02  1.515641821668E-02
  2.018035865727E-02  2.531387423390E-02  3.063704102628E-02  3.577613994437E-02
  4.079238691286E-02  4.596044693552E-02  5.116922694735E-02  5.629281359158E-02
  6.192942616304E-02  6.732256330795E-02  7.318536293912E-02  7.861534161388E-02
  8.444819686430E-02  8.963816212109E-02  9.514708906524E-02  1.009945802476E-01
  1.072014429406E-01  1.124404774478E-01  1.179355484579E-01  1.236991687138E-01
  1.297444624675E-01  1.360851953657E-01  1.427358057947E-01  1.479362033189E-01
  1.533260707120E-01  1.589123110676E-01  1.647020789849E-01  1.707027897317E-01
  1.769221287416E-01  1.833680614574E-01  1.900488435324E-01  1.969730314044E-01
  2.041494932539E-01  2.115874203624E-01  2.166959870397E-01  2.219278949507E-01
  2.272861220464E-01  2.327737181771E-01  2.383938068288E-01  2.441495869009E-01
  2.500443345270E-01  2.560814049398E-01  2.622642343807E-01  2.685963420556E-01
  2.750813321382E-01  2.817228958213E-01  2.885248134180E-01  2.954909565132E-01
  3.026252901672E-01  3.099318751730E-01  3.174148703672E-01  3.250785349974E-01
  3.329272311463E-01  3.409654262151E-01  3.491976954657E-01  3.576287246250E-01
  3.662633125523E-01  3.751063739706E-01  3.841629422638E-01  3.934381723418E-01
  4.029373435748E-01  4.126658627981E-01  4.226292673895E-01  4.277008185981E-01
  4.328332284213E-01  4.380272271624E-01  4.432835538883E-01  4.486029565350E-01
  4.539861920134E-01  4.594340263175E-01  4.649472346334E-01  4.705266014490E-01
  4.761729206663E-01  4.818869957143E-01  4.876696396629E-01  4.935216753389E-01
  4.994439354429E-01  5.054372626683E-01  5.115025098203E-01  5.176405399381E-01
  5.238522264174E-01  5.301384531344E-01  5.365001145720E-01  5.429381159469E-01
  5.494533733382E-01  5.560468138183E-01  5.627193755841E-01  5.694720080911E-01
  5.763056721882E-01  5.832213402545E-01  5.902199963375E-01  5.973026362936E-01
  6.044702679291E-01  6.117239111442E-01  6.190645980780E-01  6.264933732549E-01
  6.340112937340E-01  6.416194292588E-01  6.493188624099E-01  6.571106887588E-01
  6.649960170239E-01  6.729759692282E-01  6.810516808589E-01  6.892243010292E-01
  6.974949926416E-01  7.058649325533E-01  7.143353117439E-01  7.229073354848E-01
  7.315822235107E-01  7.403612101928E-01  7.492455447151E-01  7.582364912517E-01
  7.673353291467E-01  7.765433530965E-01  7.858618733336E-01  7.952922158136E-01
  8.048357224034E-01  8.144937510722E-01  8.242676760851E-01  8.341588881981E-01
  8.441687948565E-01  8.542988203948E-01  8.645504062395E-01  8.749250111144E-01
  8.854241112478E-01  8.960492005827E-01  9.068017909897E-01  9.176834124816E-01
  9.286956134314E-01  9.398399607926E-01  9.511180403221E-01  9.625314568059E-01
  9.740818342876E-01  9.857708162991E-01  9.976000660946E-01  1.009571266888E+00
  1.021686122090E+00  1.033946355556E+00  1.046353711822E+00  1.058909956364E+00
  1.071616875840E+00  1.084476278350E+00  1.097489993691E+00  1.110659873615E+00
  1.123987792098E+00  1.137475645604E+00  1.151125353351E+00  1.164938857591E+00
  1.178918123882E+00  1.193065141369E+00  1.207381923065E+00  1.221870506142E+00
  1.236532952216E+00  1.251371347642E+00  1.266387803814E+00  1.281584457460E+00
  1.296963470949E+00  1.312527032601E+00  1.328277356992E+00  1.344216685276E+00
  1.360347285499E+00  1.376671452925E+00  1.393191510360E+00  1.409909808484E+00
  1.426828726186E+00  1.443950670900E+00  1.461278078951E+00  1.478813415899E+00
  1.496559176889E+00  1.514517887012E+00  1.532692101656E+00  1.551084406876E+00
  1.569697419759E+00  1.588533788796E+00  1.607596194261E+00  1.626887348592E+00
  1.646409996776E+00  1.666166916737E+00  1.686160919738E+00  1.706394850775E+00
  1.726871588984E+00  1.747594048052E+00  1.768565176628E+00  1.789787958748E+00
  1.811265414253E+00  1.833000599224E+00  1.854996606414E+00  1.877256565691E+00
  1.899783644480E+00  1.922581048214E+00  1.945652020792E+00  1.968999845042E+00
  1.992627843182E+00  2.016539377300E+00  2.040737849828E+00  2.065226704026E+00
  2.090009424474E+00  2.115089537568E+00  2.140470612019E+00  2.166156259363E+00
  2.192150134475E+00  2.218455936089E+00  2.245077407322E+00  2.272018336210E+00
  2.299282556244E+00  2.326873946919E+00  2.354796434282E+00  2.383053991494E+00
  2.411650639392E+00  2.440590447064E+00  2.469877532429E+00  2.499516062818E+00
  2.529510255572E+00  2.559864378639E+00  2.590582751183E+00  2.621669744197E+00
  2.653129781127E+00  2.684967338501E+00  2.717186946563E+00  2.749793189921E+00
  2.782790708200E+00  2.816184196699E+00  2.849978407059E+00  2.884178147944E+00
  2.918788285719E+00  2.953813745148E+00  2.989259510090E+00  3.025130624211E+00
  3.061432191701E+00  3.098169378002E+00  3.135347410538E+00  3.172971579464E+00
  3.211047238418E+00  3.249579805279E+00  3.288574762942E+00  3.328037660097E+00
  3.367974112019E+00  3.408389801363E+00  3.449290478979E+00  3.490681964727E+00
  3.532570148304E+00  3.574960990083E+00  3.617860521964E+00  3.661274848228E+00
  3.705210146407E+00  3.749672668164E+00  3.794668740181E+00  3.840204765064E+00
  3.886287222244E+00  3.932922668911E+00  3.980117740938E+00  4.027879153830E+00
  4.076213703676E+00  4.125128268120E+00  4.174629807337E+00  4.224725365025E+00
  4.275422069405E+00  4.326727134238E+00  4.378647859849E+00  4.431191634167E+00
  4.484365933777E+00  4.538178324983E+00  4.592636464882E+00  4.647748102461E+00
  4.703521079691E+00  4.759963332647E+00  4.817082892639E+00  4.874887887350E+00
  4.933386541998E+00  4.992587180502E+00  5.052498226668E+00  5.113128205389E+00
  5.174485743853E+00  5.236579572779E+00  5.299418527653E+00  5.363011549985E+00
  5.427367688584E+00  5.492496100847E+00  5.558406054058E+00  5.625106926706E+00
  5.692608209827E+00  5.760919508345E+00  5.830050542445E+00  5.900011148954E+00
  5.970811282742E+00  6.042461018134E+00  6.114970550352E+00  6.188350196956E+00
  6.262610399320E+00  6.337761724112E+00  6.413814864801E+00  6.490780643179E+00
  6.568670010897E+00  6.647494051028E+00  6.727263979640E+00  6.807991147396E+00
  6.889687041164E+00  6.972363285658E+00  7.056031645086E+00  7.140704024827E+00
  7.226392473125E+00  7.313109182803E+00  7.400866492996E+00  7.489676890912E+00
  7.579553013603E+00  7.670507649766E+00  7.762553741564E+00  7.855704386462E+00
  7.949972839100E+00  8.045372513169E+00  8.141916983327E+00  8.239619987127E+00
  8.338495426973E+00  8.438557372096E+00  8.539820060561E+00  8.642297901288E+00
  8.746005476104E+00  8.850957541817E+00  8.957169032319E+00  9.064655060706E+00
  9.173430921435E+00  9.283512092492E+00  9.394914237602E+00  9.507653208453E+00
  9.621745046955E+00  9.737205987518E+00  9.854052459368E+00  9.972301088881E+00
  1.009196870195E+01  1.021307232637E+01  1.033562919429E+01  1.045965674462E+01
  1.058517262555E+01  1.071219469706E+01  1.084074103343E+01  1.097082992583E+01
  1.110247988494E+01  1.123570964356E+01  1.137053815928E+01  1.150698461719E+01
  1.164506843260E+01  1.178480925379E+01  1.192622696483E+01  1.206934168841E+01
  1.221417378867E+01  1.236074387414E+01  1.250907280063E+01  1.265918167423E+01
  1.281109185432E+01  1.296482495658E+01  1.312040285605E+01  1.327784769033E+01
  1.343718186261E+01  1.359842804496E+01  1.376160918150E+01  1.392674849168E+01
  1.409386947358E+01  1.426299590726E+01  1.443415185815E+01  1.460736168045E+01
  1.478265002061E+01  1.496004182086E+01  1.513956232271E+01  1.532123707058E+01
  1.550509191543E+01  1.569115301842E+01  1.587944685464E+01  1.607000021689E+01
  1.626284021949E+01  1.645799430213E+01  1.665549023375E+01  1.685535611656E+01
  1.705762038996E+01  1.726231183464E+01  1.746945957665E+01  1.767909309157E+01
  1.789124220867E+01  1.810593711518E+01  1.832320836056E+01  1.854308686088E+01
  1.876560390322E+01  1.899079115005E+01  1.921868064385E+01  1.944930481158E+01
  1.968269646932E+01  1.991888882695E+01  2.015791549288E+01  2.039981047879E+01
  2.064460820454E+01  2.089234350299E+01  2.114305162503E+01  2.139676824453E+01
  2.165352946346E+01  2.191337181702E+01  2.217633227883E+01  2.244244826617E+01
  2.271175764537E+01  2.298429873711E+01  2.326011032196E+01  2.353923164582E+01
  2.382170242557E+01  2.410756285468E+01  2.439685360893E+01  2.468961585224E+01
  2.498589124247E+01  2.528572193738E+01  2.558915060062E+01  2.589622040783E+01
  2.620697505273E+01  2.652145875336E+01  2.683971625840E+01  2.716179285350E+01
  2.748773436774E+01  2.781758718015E+01  2.815139822632E+01  2.848921500503E+01
  2.883108558509E+01  2.917705861211E+01  2.952718331546E+01  2.988150951524E+01
  3.024008762943E+01  3.060296868098E+01  3.097020430515E+01  3.134184675681E+01
  3.171794891790E+01  3.209856430491E+01  3.248374707657E+01  3.287355204149E+01
  3.326803466599E+01  3.366725108198E+01  3.407125809496E+01  3.448011319210E+01
  3.489387455041E+01  3.531260104501E+01  3.573635225755E+01  3.616518848464E+01
  3.659917074646E+01  3.703836079541E+01  3.748282112496E+01  3.793261497846E+01
  3.838780635820E+01  3.884846003450E+01  3.931464155491E+01  3.978641725357E+01
  4.026385426062E+01  4.074702051174E+01  4.123598475788E+01  4.173081657498E+01
  4.223158637388E+01  4.273836541036E+01  4.325122579529E+01  4.377024050483E+01
  4.429548339089E+01
</grid-data>
</grid>
<valence-charge total-charge="1" is-unscreening-charge="yes"
 rescaled-to-z-pseudo="no">
<radfunc>
<data npts="457">
  2.325553179482E+00  2.325394666239E+00  2.324919843409E+00  2.324127709669E+00
  2.323026717090E+00  2.321579683585E+00  2.319736548523E+00  2.317627502342E+00
  2.315258019633E+00  2.312497381283E+00  2.309388955932E+00  2.306014249296E+00
  2.301941179474E+00  2.297693628595E+00  2.292691334241E+00  2.287704587914E+00
  2.281973396032E+00  2.276551830590E+00  2.270469660096E+00  2.263650015116E+00
  2.256008021524E+00  2.249239828365E+00  2.241833635939E+00  2.233733465055E+00
  2.224879253989E+00  2.215206727259E+00  2.204647297049E+00  2.196101970685E+00
  2.186984418073E+00  2.177260871548E+00  2.166896215865E+00  2.155854028741E+00
  2.144096638584E+00  2.131585201527E+00  2.118279799995E+00  2.104139565077E+00
  2.089122825031E+00  2.073187282285E+00  2.062032057222E+00  2.050436783285E+00
  2.038388749270E+00  2.025875282694E+00  2.012883791952E+00  1.999401811946E+00
  1.985417053311E+00  1.970917455364E+00  1.955891242876E+00  1.940326986799E+00
  1.924213669049E+00  1.907540751486E+00  1.890298249210E+00  1.872476808306E+00
  1.854067788209E+00  1.835063348829E+00  1.815456542638E+00  1.795241411891E+00
  1.774413091211E+00  1.752967915724E+00  1.730903534978E+00  1.708219032811E+00
  1.684915053340E+00  1.660993933138E+00  1.636459839562E+00  1.611318915055E+00
  1.585579426987E+00  1.559251922323E+00  1.532349385996E+00  1.518687244862E+00
  1.504887401371E+00  1.490952235763E+00  1.476884310578E+00  1.462686375446E+00
  1.448361371726E+00  1.433912436976E+00  1.419342909186E+00  1.404656330751E+00
  1.389856452105E+00  1.374947234989E+00  1.359932855251E+00  1.344817705156E+00
  1.329606395096E+00  1.314303754648E+00  1.298914832889E+00  1.283444897884E+00
  1.267899435272E+00  1.252284145839E+00  1.236604942009E+00  1.220867943150E+00
  1.205079469597E+00  1.189246035319E+00  1.173374339129E+00  1.157471254357E+00
  1.141543816920E+00  1.125599211706E+00  1.109644757234E+00  1.093687888527E+00
  1.077736138191E+00  1.061797115667E+00  1.045878484689E+00  1.029987938967E+00
  1.014133176160E+00  9.983218702231E-01  9.825616422582E-01  9.668600300041E-01
  9.512244561689E-01  9.356621958198E-01  9.201803430970E-01  9.047857775524E-01
  8.894851304547E-01  8.742847514414E-01  8.591906759360E-01  8.442085937827E-01
  8.293438195833E-01  8.146012652476E-01  7.999854152921E-01  7.855003054367E-01
  7.711495050577E-01  7.569361040513E-01  7.428627046480E-01  7.289314186919E-01
  7.151438708562E-01  7.015012082097E-01  6.880041164729E-01  6.746528432117E-01
  6.614472280996E-01  6.483867402527E-01  6.354705224852E-01  6.226974421651E-01
  6.100661481618E-01  5.975751331740E-01  5.852228005154E-01  5.730075342113E-01
  5.609277710447E-01  5.489820729731E-01  5.371691981390E-01  5.254881685261E-01
  5.139383321703E-01  5.025194177432E-01  4.912315792856E-01  4.800754289006E-01
  4.690520167824E-01  4.581626382172E-01  4.474085489414E-01  4.367909164391E-01
  4.263108673149E-01  4.159694638467E-01  4.057677066747E-01  3.957065336003E-01
  3.857868187953E-01  3.760093720782E-01  3.663749382489E-01  3.568841964833E-01
  3.475377597912E-01  3.383361745368E-01  3.292799200233E-01  3.203694081441E-01
  3.116049830993E-01  3.029869211799E-01  2.945154306203E-01  2.861906515189E-01
  2.780126558282E-01  2.699814474143E-01  2.620969621862E-01  2.543590682950E-01
  2.467675664035E-01  2.393221900251E-01  2.320226059329E-01  2.248684146378E-01
  2.178591509361E-01  2.109942845243E-01  2.042732206833E-01  1.976953010271E-01
  1.912598043196E-01  1.849659473544E-01  1.788128858991E-01  1.727997157014E-01
  1.669254735563E-01  1.611891384320E-01  1.555896326544E-01  1.501258231462E-01
  1.447965227208E-01  1.396004914283E-01  1.345364379509E-01  1.296030210470E-01
  1.247988510402E-01  1.201224913530E-01  1.155724600803E-01  1.111472316026E-01
  1.068452382360E-01  1.026648719155E-01  9.860448591042E-02  9.466239656934E-02
  9.083688509132E-02  8.712619932207E-02  8.352855557206E-02  8.004214045434E-02
  7.666511274000E-02  7.339560522871E-02  7.023172663248E-02  6.717156347031E-02
  6.421318197180E-02  6.135462998765E-02  5.859393890390E-02  5.592912556491E-02
  5.335819418939E-02  5.087913829155E-02  4.848994259898E-02  4.618858496662E-02
  4.397303828542E-02  4.184127238377E-02  3.979125592005E-02  3.782095826445E-02
  3.592835136817E-02  3.411141161800E-02  3.236812167411E-02  3.069647228884E-02
  2.909446410392E-02  2.756010942366E-02  2.609143396115E-02  2.468647855461E-02
  2.334330085063E-02  2.205997695095E-02  2.083460301945E-02  1.966529684541E-02
  1.855019935966E-02  1.748747609952E-02  1.647531861883E-02  1.551194583922E-02
  1.459560533888E-02  1.372457457501E-02  1.289716203665E-02  1.211170832439E-02
  1.136658715402E-02  1.066020628126E-02  9.991008345200E-03  9.357471628317E-03
  8.758110731509E-03  8.191477162809E-03  7.656159839063E-03  7.150785500235E-03
  6.674019036480E-03  6.224563728612E-03  5.801161403036E-03  5.402592502669E-03
  5.027676075802E-03  4.675269685261E-03  4.344269240608E-03  4.033608756455E-03
  3.742260040282E-03  3.469232313435E-03  3.213571769176E-03  2.974361071897E-03
  2.750718801721E-03  2.541798848835E-03  2.346789761987E-03  2.164914055569E-03
  1.995427479740E-03  1.837618257970E-03  1.690806296316E-03  1.554342368639E-03
  1.427607281822E-03  1.310011024899E-03  1.200991905811E-03  1.100015679317E-03
  1.006574669367E-03  9.201868890294E-04  8.403951608119E-04  7.667662400228E-04
  6.988899435431E-04  6.363782861807E-04  5.788646265424E-04  5.260028241462E-04
  4.774664092933E-04  4.329477670282E-04  3.921573363348E-04  3.548228255551E-04
  3.206884448656E-04  2.895141565142E-04  2.610749433991E-04  2.351600964663E-04
  2.115725213085E-04  1.901280642674E-04  1.706548582709E-04  1.529926885756E-04
  1.369923785316E-04  1.225151954400E-04  1.094322765334E-04  9.762407507011E-05
  8.697982650227E-05  7.739703464325E-05  6.878097773162E-05  6.104423425816E-05
  5.410622839382E-05  4.789279482747E-05  4.233576279296E-05  3.737255903571E-05
  3.294582943997E-05  2.900307900809E-05  2.549632985460E-05  2.238179684916E-05
  1.961958051472E-05  1.717337676108E-05  1.501020300859E-05  1.310014023363E-05
  1.141609044623E-05  9.933549090836E-06  8.630391845040E-06  7.486675276456E-06
  6.484450807129E-06  5.607591425908E-06  4.841630583611E-06  4.173612702775E-06
  3.591954733502E-06  3.086318189351E-06  2.647491102079E-06  2.267279341343E-06
  1.938406755001E-06  1.654423597126E-06  1.409622724257E-06  1.198963055352E-06
  1.017999807342E-06  8.628210357367E-07  7.299900283515E-07  6.164931195844E-07
  5.196925126136E-07  4.372837172588E-07  3.672572318111E-07  3.078641177714E-07
  2.575851369738E-07  2.151031408717E-07  1.792784217189E-07  1.491267548659E-07
  1.237998803274E-07  1.025681900808E-07  8.480540515955E-08  6.997504346028E-08
  5.761849524762E-08  4.734453858609E-08  3.882014133936E-08  3.176240994143E-08
  2.593155786472E-08  2.112477859323E-08  1.717091896903E-08  1.392585903808E-08
  1.126851400091E-08  9.097382603729E-09  7.327574318900E-09  5.888254993371E-09
  4.720457326786E-09  3.775208614294E-09  3.011933690383E-09  2.397095977376E-09
  1.903044013085E-09  1.507034843406E-09  1.190409253329E-09  9.378970085918E-10
  7.370331233601E-10  5.776686884238E-10  4.515620196173E-10  3.520378455478E-10
  2.737039737468E-10  2.122163795510E-10  1.640849751224E-10  1.265134579776E-10
  9.726762841109E-11  7.456742079854E-11  5.699863087337E-11  4.344095409099E-11
  3.300949209661E-11  2.500734673615E-11  1.888731438172E-11  1.422102682845E-11
  1.067416684533E-11  7.986623852039E-12  5.956654495327E-12  4.428279667537E-12
  3.281288590745E-12  2.423336188655E-12  1.783715723327E-12  1.308467719761E-12
  9.565512285124E-13  6.968567848166E-13  5.058839702551E-13  3.659419309064E-13
  2.637599572353E-13  1.894184665270E-13  1.355294380101E-13  9.661036010047E-14
  6.860774565528E-14  4.853582249585E-14  3.420358365844E-14  2.400936838605E-14
  1.678686416392E-14  1.169007792528E-14  0.000000000000E+00  0.000000000000E+00
  0.000000000000E+00  0.000000000000E+00  0.000000000000E+00  0.000000000000E+00
  0.000000000000E+00  0.000000000000E+00  0.000000000000E+00  0.000000000000E+00
  0.000000000000E+00  0.000000000000E+00  0.000000000000E+00  0.000000000000E+00
  0.000000000000E+00  0.000000000000E+00  0.000000000000E+00  0.000000000000E+00
  0.000000000000E+00  0.000000000000E+00  0.000000000000E+00  0.000000000000E+00
  0.000000000000E+00  0.000000000000E+00  0.000000000000E+00  0.000000000000E+00
  0.000000000000E+00  0.000000000000E+00  0.000000000000E+00  0.000000000000E+00
  0.000000000000E+00  0.000000000000E+00  0.000000000000E+00  0.000000000000E+00
  0.000000000000E+00  0.000000000000E+00  0.000000000000E+00  0.000000000000E+00
  0.000000000000E+00  0.000000000000E+00  0.000000000000E+00  0.000000000000E+00
  0.000000000000E+00  0.000000000000E+00  0.000000000000E+00  0.000000000000E+00
  0.000000000000E+00  0.000000000000E+00  0.000000000000E+00  0.000000000000E+00
  0.000000000000E+00  0.000000000000E+00  0.000000000000E+00  0.000000000000E+00
  0.000000000000E+00  0.000000000000E+00  0.000000000000E+00  0.000000000000E+00
  0.000000000000E+00  0.000000000000E+00  0.000000000000E+00  0.000000000000E+00
  0.000000000000E+00
</data>
</radfunc>
</valence-charge>
<semilocal-potentials set="lj">
<slps n="1" l="s" j="0.5" rc="1.00957126689" eref="-0.232696110893">
<radfunc>
<data npts="232">
 -4.564530552794E+00 -4.564080859137E+00 -4.562736531959E+00 -4.560495420342E+00
 -4.557383132207E+00 -4.553297216080E+00 -4.548100297195E+00 -4.542163816442E+00
 -4.535507219784E+00 -4.527768986007E+00 -4.519078021399E+00 -4.509669008506E+00
 -4.498349434174E+00 -4.486587350178E+00 -4.472790509713E+00 -4.459095713918E+00
 -4.443429035138E+00 -4.428679737437E+00 -4.412214910342E+00 -4.393855673885E+00
 -4.373409725415E+00 -4.355412941702E+00 -4.335838581548E+00 -4.314571121982E+00
 -4.291490955847E+00 -4.266475134215E+00 -4.239398307297E+00 -4.217662006333E+00
 -4.194641746874E+00 -4.170284507668E+00 -4.144538087719E+00 -4.117351551222E+00
 -4.088675700428E+00 -4.058463567265E+00 -4.026670910923E+00 -3.993256704188E+00
 -3.958183586177E+00 -3.921418253173E+00 -3.895953429271E+00 -3.869716081652E+00
 -3.842699637611E+00 -3.814898400063E+00 -3.786307505267E+00 -3.756922853256E+00
 -3.726741006865E+00 -3.695759055106E+00 -3.663974436514E+00 -3.631384718202E+00
 -3.597987326484E+00 -3.563779225377E+00 -3.528756539920E+00 -3.492914122198E+00
 -3.456245059311E+00 -3.418740124283E+00 -3.380387173214E+00 -3.341170494867E+00
 -3.301070122475E+00 -3.260061121878E+00 -3.218112875267E+00 -3.175188385857E+00
 -3.131243635729E+00 -3.086227036924E+00 -3.040079024468E+00 -2.992731849305E+00
 -2.944109638803E+00 -2.894128802232E+00 -2.842698867880E+00 -2.816410658246E+00
 -2.789723846529E+00 -2.762625898223E+00 -2.735104221929E+00 -2.707146273100E+00
 -2.678739671565E+00 -2.649872333538E+00 -2.620532618745E+00 -2.590709493232E+00
 -2.560392708317E+00 -2.529572995966E+00 -2.498242280785E+00 -2.466393908548E+00
 -2.434022891026E+00 -2.401126166554E+00 -2.367702875539E+00 -2.333754649704E+00
 -2.299285913531E+00 -2.264304195918E+00 -2.228820449593E+00 -2.192849375318E+00
 -2.156409747366E+00 -2.119524736150E+00 -2.082222223256E+00 -2.044535103485E+00
 -2.006501567808E+00 -1.968165360486E+00 -1.929576002881E+00 -1.890788975867E+00
 -1.851865852089E+00 -1.812874368797E+00 -1.773888431463E+00 -1.734988038105E+00
 -1.696259113966E+00 -1.657793246253E+00 -1.619687308805E+00 -1.582042967050E+00
 -1.544966054409E+00 -1.508565812398E+00 -1.472953988211E+00 -1.438243785490E+00
 -1.404548666345E+00 -1.371981005538E+00 -1.340650601001E+00 -1.310663048592E+00
 -1.282117993442E+00 -1.255107275056E+00 -1.229712988230E+00 -1.206005487102E+00
 -1.184041365422E+00 -1.163861451790E+00 -1.145488864297E+00 -1.128927174393E+00
 -1.114158734877E+00 -1.101143231239E+00 -1.089816519132E+00 -1.080089813083E+00
 -1.071849292519E+00 -1.064956190465E+00 -1.059247427573E+00 -1.054536849277E+00
 -1.050617116572E+00 -1.047262291022E+00 -1.044231142017E+00 -1.041271188943E+00
 -1.038123472835E+00 -1.034528031346E+00 -1.030230027689E+00 -1.024986458811E+00
 -1.018573303279E+00 -1.010793459415E+00 -1.001484886064E+00 -9.905197623631E-01
 -9.787796563632E-01 -9.671772398657E-01 -9.557074347728E-01 -9.443743851921E-01
 -9.331764828334E-01 -9.221110067614E-01 -9.111768172101E-01 -9.003722755643E-01
 -8.896958525295E-01 -8.791460286995E-01 -8.687213028765E-01 -8.584201916880E-01
 -8.482412293481E-01 -8.381829674521E-01 -8.282439747698E-01 -8.184228370419E-01
 -8.087181567792E-01 -7.991285530631E-01 -7.896526613496E-01 -7.802891332751E-01
 -7.710366364642E-01 -7.618938543405E-01 -7.528594859388E-01 -7.439322457207E-01
 -7.351108633908E-01 -7.263940837167E-01 -7.177806663499E-01 -7.092693856492E-01
 -7.008590305068E-01 -6.925484041757E-01 -6.843363240989E-01 -6.762216217419E-01
 -6.682031424259E-01 -6.602797451633E-01 -6.524503024958E-01 -6.447137003335E-01
 -6.370688377965E-01 -6.295146270578E-01 -6.220499931891E-01 -6.146738740072E-01
 -6.073852199227E-01 -6.001829937911E-01 -5.930661707644E-01 -5.860337381457E-01
 -5.790846952446E-01 -5.722180532348E-01 -5.654328350132E-01 -5.587280750610E-01
 -5.521028193054E-01 -5.455561249846E-01 -5.390870605128E-01 -5.326947053479E-01
 -5.263781498602E-01 -5.201364952028E-01 -5.139688531837E-01 -5.078743461391E-01
 -5.018521068088E-01 -4.959012782125E-01 -4.900210135280E-01 -4.842104759679E-01
 -4.784688386804E-01 -4.727952845865E-01 -4.671890062814E-01 -4.616492059917E-01
 -4.561750953709E-01 -4.507658953928E-01 -4.454208362894E-01 -4.401391574142E-01
 -4.349201071396E-01 -4.297629427496E-01 -4.246669303354E-01 -4.196313446918E-01
 -4.146554692144E-01 -4.097385957986E-01 -4.048800247400E-01 -4.000790646353E-01
 -3.953350322851E-01 -3.906472525973E-01 -3.860150584920E-01 -3.814377908073E-01
 -3.769147982061E-01 -3.724454370842E-01 -3.680290714791E-01 -3.636650729799E-01
 -3.593528206384E-01 -3.550917008805E-01 -3.508811074191E-01 -3.467204411680E-01
 -3.426091101556E-01 -3.385465294411E-01 -3.345321210301E-01 -3.305653137920E-01
</data>
</radfunc>
</slps>
<slps n="2" l="p" j="1.5" rc="0.705864932553" eref="0.799999990600E-01">
<radfunc>
<data npts="232">
 -5.834237656376E+00 -5.831819780189E+00 -5.824601602448E+00 -5.812593233736E+00
 -5.795968142552E+00 -5.774232565196E+00 -5.746735139006E+00 -5.715527767282E+00
 -5.680792490886E+00 -5.640755405668E+00 -5.596227753044E+00 -5.548544457923E+00
 -5.491899382939E+00 -5.433873240155E+00 -5.366890491470E+00 -5.301556577990E+00
 -5.228222551066E+00 -5.160552581113E+00 -5.086577600462E+00 -5.006033823646E+00
 -4.918737666862E+00 -4.843984517469E+00 -4.764885389250E+00 -4.681536579668E+00
 -4.594117620551E+00 -4.502904414288E+00 -4.408282010583E+00 -4.335377317078E+00
 -4.261097629979E+00 -4.185746286475E+00 -4.109669415164E+00 -4.033255001530E+00
 -3.956930332668E+00 -3.881157455475E+00 -3.806426263837E+00 -3.733244829875E+00
 -3.662126620192E+00 -3.593574300096E+00 -3.549533309852E+00 -3.506971229766E+00
 -3.466001590193E+00 -3.426720105852E+00 -3.389200700560E+00 -3.353491358244E+00
 -3.319609878878E+00 -3.287539639656E+00 -3.257225485201E+00 -3.228569895501E+00
 -3.201429605730E+00 -3.175612877236E+00 -3.150877642372E+00 -3.126930765794E+00
 -3.103428679417E+00 -3.079979654842E+00 -3.056147973023E+00 -3.031460233023E+00
 -3.005414006640E+00 -2.977488989852E+00 -2.947160722153E+00 -2.913916838000E+00
 -2.877275678492E+00 -2.836806925373E+00 -2.792153724640E+00 -2.743055547314E+00
 -2.689370797966E+00 -2.631097939477E+00 -2.568393672722E+00 -2.535475463195E+00
 -2.501586516126E+00 -2.466795928772E+00 -2.431184002106E+00 -2.394841989976E+00
 -2.357871680920E+00 -2.320384802137E+00 -2.282502237141E+00 -2.244353051054E+00
 -2.206073320469E+00 -2.167804768288E+00 -2.129693207897E+00 -2.091886805507E+00
 -2.054534174404E+00 -2.017782320131E+00 -1.981774461250E+00 -1.946647756145E+00
 -1.912530972208E+00 -1.879542139573E+00 -1.847786237090E+00 -1.817352963332E+00
 -1.788314649745E+00 -1.760724376529E+00 -1.734614354014E+00 -1.709994633034E+00
 -1.686852206855E+00 -1.665150564202E+00 -1.644829747830E+00 -1.625806965545E+00
 -1.607977790584E+00 -1.591217975712E+00 -1.575385890313E+00 -1.560325572257E+00
 -1.545870366673E+00 -1.531847102245E+00 -1.518080732795E+00 -1.504399348306E+00
 -1.490639435959E+00 -1.476651249009E+00 -1.462304120556E+00 -1.447491541475E+00
 -1.432135808203E+00 -1.416192038084E+00 -1.400008252565E+00 -1.384013586407E+00
 -1.368175875685E+00 -1.352488276330E+00 -1.336944262199E+00 -1.321537705729E+00
 -1.306262961752E+00 -1.291114953139E+00 -1.276089256666E+00 -1.261182187218E+00
 -1.246390878262E+00 -1.231713356297E+00 -1.217148606838E+00 -1.202696629362E+00
 -1.188358478579E+00 -1.174136289282E+00 -1.160033282051E+00 -1.146053747008E+00
 -1.132203002875E+00 -1.118487328566E+00 -1.104913864692E+00 -1.091490482518E+00
 -1.078225618313E+00 -1.065128071602E+00 -1.052206766721E+00 -1.039470478338E+00
 -1.026927485610E+00 -1.014585640322E+00 -1.002452427929E+00 -9.905260364510E-01
 -9.787796563632E-01 -9.671772398657E-01 -9.557074347728E-01 -9.443743851921E-01
 -9.331764828334E-01 -9.221110067614E-01 -9.111768172101E-01 -9.003722755643E-01
 -8.896958525295E-01 -8.791460286995E-01 -8.687213028765E-01 -8.584201916880E-01
 -8.482412293481E-01 -8.381829674521E-01 -8.282439747698E-01 -8.184228370419E-01
 -8.087181567792E-01 -7.991285530631E-01 -7.896526613496E-01 -7.802891332751E-01
 -7.710366364642E-01 -7.618938543405E-01 -7.528594859388E-01 -7.439322457207E-01
 -7.351108633908E-01 -7.263940837167E-01 -7.177806663499E-01 -7.092693856492E-01
 -7.008590305068E-01 -6.925484041757E-01 -6.843363240989E-01 -6.762216217419E-01
 -6.682031424259E-01 -6.602797451633E-01 -6.524503024958E-01 -6.447137003335E-01
 -6.370688377965E-01 -6.295146270578E-01 -6.220499931891E-01 -6.146738740072E-01
 -6.073852199227E-01 -6.001829937911E-01 -5.930661707644E-01 -5.860337381457E-01
 -5.790846952446E-01 -5.722180532348E-01 -5.654328350132E-01 -5.587280750610E-01
 -5.521028193054E-01 -5.455561249846E-01 -5.390870605128E-01 -5.326947053479E-01
 -5.263781498602E-01 -5.201364952028E-01 -5.139688531837E-01 -5.078743461391E-01
 -5.018521068088E-01 -4.959012782125E-01 -4.900210135280E-01 -4.842104759679E-01
 -4.784688386804E-01 -4.727952845865E-01 -4.671890062814E-01 -4.616492059917E-01
 -4.561750953709E-01 -4.507658953928E-01 -4.454208362894E-01 -4.401391574142E-01
 -4.349201071396E-01 -4.297629427496E-01 -4.246669303354E-01 -4.196313446918E-01
 -4.146554692144E-01 -4.097385957986E-01 -4.048800247400E-01 -4.000790646353E-01
 -3.953350322851E-01 -3.906472525973E-01 -3.860150584920E-01 -3.814377908073E-01
 -3.769147982061E-01 -3.724454370842E-01 -3.680290714791E-01 -3.636650729799E-01
 -3.593528206384E-01 -3.550917008805E-01 -3.508811074191E-01 -3.467204411680E-01