<?xml version="1.0" encoding="UTF-8" ?>
<psml version="1.1" energy_unit="hartree" length_unit="bohr"
 uuid="2c979e00-53b5-11e8-4fb4-882af3f5571d"
 xmlns="http://esl.cecam.org/PSML/ns/1.1">
<provenance creator="ONCVPSP-3.3.0+psml-3.3.0-73 (fully-relativistic)"
 date="2018-05-09">
<annotation action="semilocal-pseudopotential-generation"
 action-cont="projectors-generation" />
<input-file name="oncvpsp-input">
<![CDATA[# atsym z nc nv iexc psfile
Tl 81 10 5 -116133 upf
# n l f
1 0 2.0
2 0 2.0
2 1 6.0
3 0 2.0
3 1 6.0
3 2 10.0
4 0 2.0
4 1 6.0
4 2 10.0
4 3 14.0
5 0 2.0
5 1 6.0
5 2 10.0
6 0 2.0
6 1 1.0
# lmax
2
# l rc ep ncon nbas qcut
0 1.4 0.0 4 8 9.0
1 1.5 0.0 4 8 8.4
2 1.4 0.0 4 8 9.0
# lloc lpopt rc5 dvloc0
4 5 1.3 0.0
# l nproj debl
0 2 1.0
1 2 1.0
2 2 2.5
# icmod fcfact rcfact
3 9.0 1.2
# epsh1 epsh2 depsh
-12.0 12.0 0.02
# rlmax drl
6.0 0.01
 0
]]>
</input-file>
</provenance>
<pseudo-atom-spec atomic-label="Tl" atomic-number="81" z-pseudo="21"
 flavor="Hamann&apos;s oncvpsp" relativity="dirac" spin-dft="no"
 core-corrections="yes">
<annotation pseudo-energy="-174.835828894" />
<exchange-correlation>
<annotation oncvpsp-xc-code="-116133" oncvpsp-xc-type="libxc-interface" />
<libxc-info number-of-functionals="2">
<functional name="Perdew, Burke &amp; Ernzerhof SOL (GGA)" type="exchange"
 id="116" />
<functional name="Perdew, Burke &amp; Ernzerhof SOL (GGA)" type="correlation"
 id="133" />
</libxc-info>
</exchange-correlation>
<valence-configuration total-valence-charge="21">
<shell n="5" l="s" occupation="2" />
<shell n="5" l="p" occupation="6" />
<shell n="5" l="d" occupation="10" />
<shell n="6" l="s" occupation="2" />
<shell n="6" l="p" occupation="1" />
</valence-configuration>
</pseudo-atom-spec>
<grid npts="457">
<annotation type="sampled from oncvpsp log grid"
 recipe="r(i:1..N) = r1*exp(a*(i-1)) + r=0; resampled"
 recipe-cont="r1: scale; a: step" scale="0.617283950617E-05"
 step="0.119285708653E-01" delta="0.500000000000E-02" rmax="44.0862366899" />
<grid-data>
  0.000000000000E+00  5.034229527132E-03  1.005547840830E-02  1.508482106348E-02
  2.008502899497E-02  2.519429444232E-02  3.049231521517E-02  3.560713762894E-02
  4.108688469256E-02  4.629225516251E-02  5.153863959675E-02  5.669921561583E-02
  6.237652131689E-02  6.780859383762E-02  7.283964381425E-02  7.824397190261E-02
  8.404927342464E-02  8.921472189043E-02  9.469762530576E-02  1.005174936213E-01
  1.066950358184E-01  1.119093217371E-01  1.173784346723E-01  1.231148282578E-01
  1.291315647484E-01  1.354423447633E-01  1.420615384838E-01  1.472373699362E-01
  1.526017762239E-01  1.581616278312E-01  1.639240455596E-01  1.698964096482E-01
  1.760863692255E-01  1.825018521063E-01  1.891510749455E-01  1.960425537609E-01
  2.031851148411E-01  2.105879060489E-01  2.156723404525E-01  2.208795334404E-01
  2.262124488958E-01  2.316741222619E-01  2.372676622698E-01  2.429962527077E-01
  2.488631542330E-01  2.548717062288E-01  2.610253287040E-01  2.673275242402E-01
  2.737818799855E-01  2.803920696959E-01  2.871618558266E-01  2.940950916737E-01
  3.011957235671E-01  3.084677931169E-01  3.159154395139E-01  3.235429018855E-01
  3.313545217086E-01  3.393547452808E-01  3.475481262508E-01  3.559393282110E-01
  3.645331273513E-01  3.733344151781E-01  3.823482012982E-01  3.915796162703E-01
  4.010339145255E-01  4.107164773579E-01  4.206328159872E-01  4.256804097790E-01
  4.307885746964E-01  4.359580375927E-01  4.411895340438E-01  4.464838084524E-01
  4.518416141538E-01  4.572637135236E-01  4.627508780859E-01  4.683038886230E-01
  4.739235352864E-01  4.796106177099E-01  4.853659451224E-01  4.911903364639E-01
  4.970846205014E-01  5.030496359474E-01  5.090862315788E-01  5.151952663578E-01
  5.213776095540E-01  5.276341408687E-01  5.339657505591E-01  5.403733395658E-01
  5.468578196406E-01  5.534201134763E-01  5.600611548380E-01  5.667818886961E-01
  5.735832713604E-01  5.804662706168E-01  5.874318658642E-01  5.944810482545E-01
  6.016148208336E-01  6.088341986836E-01  6.161402090678E-01  6.235338915766E-01
  6.310162982755E-01  6.385884938548E-01  6.462515557811E-01  6.540065744505E-01
  6.618546533439E-01  6.697969091840E-01  6.778344720942E-01  6.859684857593E-01
  6.942001075884E-01  7.025305088795E-01  7.109608749861E-01  7.194924054859E-01
  7.281263143517E-01  7.368638301239E-01  7.457061960854E-01  7.546546704385E-01
  7.637105264837E-01  7.728750528015E-01  7.821495534351E-01  7.915353480764E-01
  8.010337722533E-01  8.106461775203E-01  8.203739316506E-01  8.302184188304E-01
  8.401810398563E-01  8.502632123346E-01  8.604663708826E-01  8.707919673332E-01
  8.812414709412E-01  8.918163685925E-01  9.025181650156E-01  9.133483829958E-01
  9.243085635918E-01  9.354002663549E-01  9.466250695511E-01  9.579845703857E-01
  9.694803852304E-01  9.811141498531E-01  9.928875196514E-01  1.004802169887E+00
  1.016859795926E+00  1.029062113477E+00  1.041410858839E+00  1.053907789145E+00
  1.066554682614E+00  1.079353338806E+00  1.092305578871E+00  1.105413245818E+00
  1.118678204768E+00  1.132102343225E+00  1.145687571344E+00  1.159435822200E+00
  1.173349052066E+00  1.187429240691E+00  1.201678391579E+00  1.216098532278E+00
  1.230691714666E+00  1.245460015242E+00  1.260405535424E+00  1.275530401850E+00
  1.290836766672E+00  1.306326807872E+00  1.322002729566E+00  1.337866762321E+00
  1.353921163469E+00  1.370168217431E+00  1.386610236040E+00  1.403249558872E+00
  1.420088553579E+00  1.437129616222E+00  1.454375171616E+00  1.471827673676E+00
  1.489489605760E+00  1.507363481029E+00  1.525451842801E+00  1.543757264915E+00
  1.562282352094E+00  1.581029740319E+00  1.600002097203E+00  1.619202122369E+00
  1.638632547838E+00  1.658296138412E+00  1.678195692073E+00  1.698334040378E+00
  1.718714048862E+00  1.739338617448E+00  1.760210680858E+00  1.781333209028E+00
  1.802709207536E+00  1.824341718027E+00  1.846233818643E+00  1.868388624467E+00
  1.890809287960E+00  1.913498999416E+00  1.936460987409E+00  1.959698519258E+00
  1.983214901489E+00  2.007013480307E+00  2.031097642071E+00  2.055470813775E+00
  2.080136463541E+00  2.105098101103E+00  2.130359278316E+00  2.155923589656E+00
  2.181794672732E+00  2.207976208805E+00  2.234471923311E+00  2.261285586390E+00
  2.288421013427E+00  2.315882065588E+00  2.343672650375E+00  2.371796722180E+00
  2.400258282846E+00  2.429061382240E+00  2.458210118827E+00  2.487708640253E+00
  2.517561143936E+00  2.547771877663E+00  2.578345140195E+00  2.609285281877E+00
  2.640596705260E+00  2.672283865723E+00  2.704351272112E+00  2.736803487377E+00
  2.769645129225E+00  2.802880870776E+00  2.836515441225E+00  2.870553626520E+00
  2.905000270038E+00  2.939860273279E+00  2.975138596558E+00  3.010840259717E+00
  3.046970342834E+00  3.083533986948E+00  3.120536394791E+00  3.157982831528E+00
  3.195878625507E+00  3.234229169013E+00  3.273039919041E+00  3.312316398069E+00
  3.352064194846E+00  3.392288965184E+00  3.432996432767E+00  3.474192389960E+00
  3.515882698639E+00  3.558073291023E+00  3.600770170515E+00  3.643979412562E+00
  3.687707165512E+00  3.731959651498E+00  3.776743167316E+00  3.822064085324E+00
  3.867928854348E+00  3.914344000600E+00  3.961316128607E+00  4.008851922151E+00
  4.056958145217E+00  4.105641642959E+00  4.154909342675E+00  4.204768254787E+00
  4.255225473844E+00  4.306288179530E+00  4.357963637685E+00  4.410259201337E+00
  4.463182311753E+00  4.516740499494E+00  4.570941385488E+00  4.625792682114E+00
  4.681302194299E+00  4.737477820631E+00  4.794327554478E+00  4.851859485132E+00
  4.910081798954E+00  4.969002780541E+00  5.028630813908E+00  5.088974383674E+00
  5.150042076279E+00  5.211842581194E+00  5.274384692168E+00  5.337677308474E+00
  5.401729436176E+00  5.466550189410E+00  5.532148791683E+00  5.598534577183E+00
  5.665716992109E+00  5.733705596015E+00  5.802510063167E+00  5.872140183925E+00
  5.942605866132E+00  6.013917136526E+00  6.086084142164E+00  6.159117151870E+00
  6.233026557692E+00  6.307822876385E+00  6.383516750901E+00  6.460118951912E+00
  6.537640379335E+00  6.616092063887E+00  6.695485168654E+00  6.775830990677E+00
  6.857140962566E+00  6.939426654116E+00  7.022699773966E+00  7.106972171253E+00
  7.192255837308E+00  7.278562907356E+00  7.365905662244E+00  7.454296530191E+00
  7.543748088554E+00  7.634273065616E+00  7.725884342404E+00  7.818594954512E+00
  7.912418093967E+00  8.007367111094E+00  8.103455516427E+00  8.200696982624E+00
  8.299105346416E+00  8.398694610573E+00  8.499478945900E+00  8.601472693251E+00
  8.704690365570E+00  8.809146649956E+00  8.914856409756E+00  9.021834686673E+00
  9.130096702913E+00  9.239657863348E+00  9.350533757708E+00  9.462740162801E+00
  9.576293044754E+00  9.691208561291E+00  9.807503064027E+00  9.925193100795E+00
  1.004429541800E+01  1.016482696302E+01  1.028680488658E+01  1.041024654522E+01
  1.053516950376E+01  1.066159153780E+01  1.078953063626E+01  1.091900500389E+01
  1.105003306394E+01  1.118263346071E+01  1.131682506223E+01  1.145262696298E+01
  1.159005848654E+01  1.172913918838E+01  1.186988885864E+01  1.201232752494E+01
  1.215647545524E+01  1.230235316070E+01  1.244998139863E+01  1.259938117541E+01
  1.275057374952E+01  1.290358063451E+01  1.305842360213E+01  1.321512468535E+01
  1.337370618158E+01  1.353419065576E+01  1.369660094363E+01  1.386096015495E+01
  1.402729167681E+01  1.419561917693E+01  1.436596660705E+01  1.453835820634E+01
  1.471281850481E+01  1.488937232687E+01  1.506804479479E+01  1.524886133233E+01
  1.543184766832E+01  1.561702984034E+01  1.580443419842E+01  1.599408740880E+01
  1.618601645771E+01  1.638024865520E+01  1.657681163907E+01  1.677573337873E+01
  1.697704217928E+01  1.718076668543E+01  1.738693588566E+01  1.759557911628E+01
  1.780672606568E+01  1.802040677847E+01  1.823665165981E+01  1.845549147973E+01
  1.867695737748E+01  1.890108086601E+01  1.912789383640E+01  1.935742856244E+01
  1.958971770519E+01  1.982479431765E+01  2.006269184946E+01  2.030344415166E+01
  2.054708548148E+01  2.079365050726E+01  2.104317431334E+01  2.129569240510E+01
  2.155124071396E+01  2.180985560253E+01  2.207157386976E+01  2.233643275620E+01
  2.260446994927E+01  2.287572358867E+01  2.315023227173E+01  2.342803505899E+01
  2.370917147970E+01  2.399368153745E+01  2.428160571590E+01  2.457298498449E+01
  2.486786080431E+01  2.516627513396E+01  2.546827043557E+01  2.577388968079E+01
  2.608317635696E+01  2.639617447325E+01  2.671292856693E+01  2.703348370973E+01
  2.735788551425E+01  2.768618014042E+01  2.801841430210E+01  2.835463527373E+01
  2.869489089701E+01  2.903922958778E+01  2.938770034283E+01  2.974035274694E+01
  3.009723697991E+01  3.045840382367E+01  3.082390466955E+01  3.119379152558E+01
  3.156811702389E+01  3.194693442818E+01  3.233029764132E+01  3.271826121301E+01
  3.311088034757E+01  3.350821091174E+01  3.391030944268E+01  3.431723315599E+01
  3.472903995386E+01  3.514578843331E+01  3.556753789451E+01  3.599434834924E+01
  3.642628052944E+01  3.686339589579E+01  3.730575664654E+01  3.775342572630E+01
  3.820646683501E+01  3.866494443703E+01  3.912892377028E+01  3.959847085552E+01
  4.007365250579E+01  4.055453633586E+01  4.104119077189E+01  4.153368506115E+01
  4.203208928188E+01  4.253647435326E+01  4.304691204550E+01  4.356347499005E+01
  4.408623668993E+01
</grid-data>
</grid>
<valence-charge total-charge="21" is-unscreening-charge="yes"
 rescaled-to-z-pseudo="no">
<radfunc>
<data npts="457">
  2.564767927926E+00  2.567271907220E+00  2.574757607505E+00  2.587247906303E+00
  2.604616986404E+00  2.627461296325E+00  2.656585630049E+00  2.689948620966E+00
  2.731403105397E+00  2.776245747439E+00  2.826819450218E+00  2.881823406503E+00
  2.948345370764E+00  3.017874465115E+00  3.087386424497E+00  3.167520645039E+00
  3.259885438005E+00  3.347523021810E+00  3.446142122841E+00  3.557098737123E+00
  3.681910098202E+00  3.792867611200E+00  3.914731503209E+00  4.048546497890E+00
  4.195450581752E+00  4.356681536232E+00  4.533583412354E+00  4.677415672218E+00
  4.831537595417E+00  4.996645698852E+00  5.173476129291E+00  5.362805393557E+00
  5.565450736779E+00  5.782270070048E+00  6.014161329597E+00  6.262061127391E+00
  6.526942527556E+00  6.809811754059E+00  7.008894483353E+00  7.216743693851E+00
  7.433675291453E+00  7.660007450568E+00  7.896059220700E+00  8.142148905017E+00
  8.398592185581E+00  8.665699968032E+00  8.943775916694E+00  9.233113649296E+00
  9.533993558881E+00  9.846679229064E+00  1.017141340769E+01  1.050841350325E+01
  1.085786656816E+01  1.121992373374E+01  1.159469406271E+01  1.198223778788E+01
  1.238255890908E+01  1.279559712570E+01  1.322121908937E+01  1.365920897039E+01
  1.410925834314E+01  1.457095541043E+01  1.504377360431E+01  1.552705962227E+01
  1.602002098307E+01  1.652171321626E+01  1.703102683359E+01  1.728814660744E+01
  1.754667426985E+01  1.780641894020E+01  1.806717702457E+01  1.832873184519E+01
  1.859085328532E+01  1.885329745294E+01  1.911580636639E+01  1.937810766585E+01
  1.963991435437E+01  1.990092457270E+01  2.016082141219E+01  2.041927277047E+01
  2.067593125469E+01  2.093043413734E+01  2.118240336998E+01  2.143144566030E+01
  2.167715261800E+01  2.191910097535E+01  2.215685288826E+01  2.238995632352E+01
  2.261794553836E+01  2.284034165804E+01  2.305665335713E+01  2.326637765022E+01
  2.346900079719E+01  2.366399932819E+01  2.385084119267E+01  2.402898703680E+01
  2.419789161236E+01  2.435700532012E+01  2.450577588928E+01  2.464365019398E+01
  2.477007620665E+01  2.488450508665E+01  2.498639340158E+01  2.507520547673E+01
  2.515041586711E+01  2.521151194421E+01  2.525799658830E+01  2.528939097493E+01
  2.530523744232E+01  2.530510242453E+01  2.528857943296E+01  2.525529206693E+01
  2.520489703197E+01  2.513708714265E+01  2.505159428478E+01  2.494819231043E+01
  2.482669983758E+01  2.468698292516E+01  2.452895759339E+01  2.435259215869E+01
  2.415790935250E+01  2.394498819360E+01  2.371396558431E+01  2.346503760228E+01
  2.319846046164E+01  2.291455111921E+01  2.261368750495E+01  2.229630835877E+01
  2.196291266014E+01  2.161405864086E+01  2.125036237646E+01  2.087249595627E+01
  2.048118523759E+01  2.007720719433E+01  1.966138687585E+01  1.923459399619E+01
  1.879773917875E+01  1.835176988531E+01  1.789766606169E+01  1.743643553499E+01
  1.696910919929E+01  1.649673602763E+01  1.602037794816E+01  1.554110462159E+01
  1.505998815567E+01  1.457809778999E+01  1.409649458188E+01  1.361622612115E+01
  1.313832129828E+01  1.266378514798E+01  1.219359378782E+01  1.172868946990E+01
  1.126997576329E+01  1.081831288567E+01  1.037451320463E+01  9.939336932632E+00
  9.513488044453E+00  9.097610451648E+00  8.692284475364E+00  8.298023665691E+00
  7.915272022512E+00  7.544401678759E+00  7.185711111400E+00  6.839423948239E+00
  6.505688439448E+00  6.184577659876E+00  5.876090499454E+00  5.580153487307E+00
  5.296625095143E+00  5.025307370274E+00  4.765961541183E+00  4.518313695281E+00
  4.282057464945E+00  4.056859003424E+00  3.842362136195E+00  3.638197043819E+00
  3.443990465310E+00  3.259367839004E+00  3.083955282249E+00  2.917381330392E+00
  2.759278488949E+00  2.609284598013E+00  2.467044020174E+00  2.332208662091E+00
  2.204438841537E+00  2.083404009462E+00  1.968783338513E+00  1.860266188609E+00
  1.757552460040E+00  1.660352844377E+00  1.568388983064E+00  1.481393543237E+00
  1.399110219848E+00  1.321293672729E+00  1.247709406721E+00  1.178133602509E+00
  1.112352905272E+00  1.050164177756E+00  9.913742238284E-01  9.357994881157E-01
  8.832657367789E-01  8.336077240349E-01  7.866688485539E-01  7.423008034257E-01
  7.003632229682E-01  6.607233292561E-01  6.232555808777E-01  5.878413260817E-01
  5.543684621573E-01  5.227311025957E-01  4.928292533115E-01  4.645684989593E-01
  4.378597001558E-01  4.126187022208E-01  3.887660558736E-01  3.662267501617E-01
  3.449299577619E-01  3.248087926737E-01  3.058000802210E-01  2.878441391890E-01
  2.708845758501E-01  2.548680895702E-01  2.397442896368E-01  2.254655229113E-01
  2.119867118783E-01  1.992652026407E-01  1.872606223975E-01  1.759347459310E-01
  1.652513706300E-01  1.551761995741E-01  1.456767322140E-01  1.367221621905E-01
  1.282832818469E-01  1.203323930092E-01  1.128432236010E-01  1.057908497343E-01
  9.915162286144E-02  9.290310164793E-02  8.702398822357E-02  8.149406849238E-02
  7.629415620101E-02  7.140604048494E-02  6.681243662987E-02  6.249693980416E-02
  5.844398153560E-02  5.463878872230E-02  5.106734498357E-02  4.771635417191E-02
  4.457320588126E-02  4.162594280044E-02  3.886322977307E-02  3.627432443747E-02
  3.384904933072E-02  3.157776535157E-02  2.945134648643E-02  2.746115571123E-02
  2.559902199060E-02  2.385721830279E-02  2.222844062561E-02  2.070578782595E-02
  1.928274239966E-02  1.795315201509E-02  1.671121181748E-02  1.555144745632E-02
  1.446869880117E-02  1.345810431511E-02  1.251508605795E-02  1.163533529415E-02
  1.081479868270E-02  1.004966502825E-02  9.336352574731E-03  8.671496823934E-03
  8.051938863460E-03  7.474714188598E-03  6.937042004395E-03  6.436314994507E-03
  5.970089544083E-03  5.536076404336E-03  5.132131786792E-03  4.756248875382E-03
  4.406549744711E-03  4.081277672842E-03  3.778789836980E-03  3.497550380374E-03
  3.236123838684E-03  2.993168913986E-03  2.767432584486E-03  2.557744537918E-03
  2.363011916531E-03  2.182214361500E-03  2.014399344575E-03  1.858677774746E-03
  1.714219867789E-03  1.580251266555E-03  1.456049400049E-03  1.340940069437E-03
  1.234294249339E-03  1.135525093009E-03  1.044085130242E-03  9.594636471733E-04
  8.811842374831E-04  8.088025148440E-04  7.419039768819E-04  6.801020112944E-04
  6.230360352043E-04  5.703697592485E-04  5.217895683384E-04  4.770030114584E-04
  4.357373932983E-04  3.977384609366E-04  3.627691792011E-04  3.306085887306E-04
  3.010507411421E-04  2.739037060688E-04  2.489886451818E-04  2.261389486281E-04
  2.051994296272E-04  1.860255732453E-04  1.684828356388E-04  1.524459902972E-04
  1.377985180483E-04  1.244320377979E-04  1.122457751730E-04  1.011460664211E-04
  9.104589508906E-05  8.186445916422E-05  7.352676651431E-05  6.596325660316E-05
  5.910944659762E-05  5.290560010994E-05  4.729641694494E-05  4.223074234024E-05
  3.766129430182E-05  3.354440774675E-05  2.983979426831E-05  2.651031643784E-05
  2.352177565062E-05  2.084271261047E-05  1.844421962924E-05  1.629976399240E-05
  1.438502171127E-05  1.267772104475E-05  1.115749523005E-05  9.805743912458E-06
  8.605502808454E-06  7.541321175643E-06  6.599146696873E-06  5.766217414862E-06
  5.030960378525E-06  4.382896683104E-06  3.812552603825E-06  3.311376537505E-06
  2.871661478848E-06  2.486472768443E-06  2.149580858239E-06  1.855398847725E-06
  1.598924550659E-06  1.375686858153E-06  1.181696169503E-06  1.013398667597E-06
  8.676342210715E-07  7.415977009296E-07  6.328035049718E-07  5.390530893524E-07
  4.584053127741E-07  3.891494053563E-07  3.297803810154E-07  2.789767192719E-07
  2.355801497124E-07  1.985773798421E-07  1.670836147209E-07  1.403277244170E-07
  1.176389239519E-07  9.843483554991E-08  8.221081500089E-08  6.853042975855E-08
  5.701697708510E-08  4.734595433359E-08  3.923838200574E-08  3.245489903942E-08
  2.679055205155E-08  2.207020719059E-08  1.814451921072E-08  1.488639801718E-08
  1.218791824598E-08  9.957622425955E-09  8.118172930446E-09  6.604312262199E-09
  5.361095235882E-09  4.342360336704E-09  3.509410951649E-09  2.829880304289E-09
  2.276756788292E-09  1.827549002932E-09  1.463572160947E-09  1.169339680140E-09
  9.320457002719E-10  7.411260013700E-10  5.878863532139E-10  4.651887130197E-10
  3.671869231407E-10  2.891046562351E-10  2.270493245256E-10  1.778565244401E-10
  1.389603392918E-10  1.082854812186E-10  8.415782904150E-11  6.523042000527E-11
  5.042238874411E-11  3.886872380224E-11  2.987903746961E-11  2.290382476831E-11
  1.750692772913E-11  1.334312665098E-11  1.013995532336E-11  7.682986211294E-12
  5.803957897667E-12  4.371223782188E-12  3.282090907179E-12  2.456693234805E-12
  1.833106851169E-12  1.363467257083E-12  1.010892717195E-12  7.470539545825E-13
  5.502604815370E-13  4.039585643890E-13  2.955560986000E-13  2.155062570738E-13
  1.565952982487E-13  1.133909054672E-13  8.181632485931E-14  5.882274526454E-14
  4.213813365564E-14  3.007536193917E-14  2.138615085247E-14  1.515029140511E-14
  1.069192989359E-14  7.516538552135E-15  5.263638006833E-15  3.671469229815E-15
  2.550695901481E-15  1.764904802700E-15  1.216203697258E-15  8.346264230754E-16
  5.703701120773E-16  3.881306445484E-16  2.629862366890E-16  1.774185357900E-16
  1.191659946671E-16  7.964017940549E-17  5.301601935978E-17  3.513123004667E-17
  2.317199729051E-17  0.000000000000E+00  0.000000000000E+00  0.000000000000E+00
  0.000000000000E+00
</data>
</radfunc>
</valence-charge>
<pseudocore-charge matching-radius="0.736863830124"
 number-of-continuous-derivatives="4">
<annotation model-charge-form="Teter function with specified parameters" />
<radfunc>
<data npts="290">
  2.439133568947E+02  2.438883788524E+02  2.438137164655E+02  2.436891718943E+02
  2.435160494792E+02  2.432884776561E+02  2.429985484639E+02  2.426667032244E+02
  2.422547898612E+02  2.418097243860E+02  2.413084162490E+02  2.407639578369E+02
  2.401065457204E+02  2.394206447310E+02  2.387361601248E+02  2.379486140900E+02
  2.370428919625E+02  2.361855106430E+02  2.352229850493E+02  2.341429157044E+02
  2.329315737299E+02  2.318578442381E+02  2.306819554655E+02  2.293947749831E+02
  2.279864771418E+02  2.264465171303E+02  2.247636106019E+02  2.234004096546E+02
  2.219446890740E+02  2.203908543382E+02  2.187330780112E+02  2.169653074479E+02
  2.150812762257E+02  2.130745199151E+02  2.109383968629E+02  2.086661147291E+02
  2.062507635837E+02  2.036853564320E+02  2.018882557347E+02  2.000192711788E+02
  1.980763434324E+02  1.960574374271E+02  1.939605531315E+02  1.917837374132E+02
  1.895250970475E+02  1.871828129298E+02  1.847551555419E+02  1.822405017189E+02
  1.796373527584E+02  1.769443538995E+02  1.741603151939E+02  1.712842337751E+02
  1.683153175138E+02  1.652530100345E+02  1.620970170381E+02  1.588473338574E+02
  1.555042741357E+02  1.520684994909E+02  1.485410499853E+02  1.449233751813E+02
  1.412173655167E+02  1.374253836801E+02  1.335502956144E+02  1.295955007141E+02
  1.255649607232E+02  1.214632267700E+02  1.172954639135E+02  1.151886089335E+02
  1.130674725051E+02  1.109328817961E+02  1.087857056028E+02  1.066268546200E+02
  1.044572816149E+02  1.022779814991E+02  1.000899912896E+02  9.789438995252E+01
  9.569229812037E+01  9.348487767653E+01  9.127333119811E+01  8.905890124994E+01
  8.684286952176E+01  8.462655580131E+01  8.241131677581E+01  8.019854465483E+01
  7.798966560785E+01  7.578613801015E+01  7.358945049125E+01  7.140111978059E+01
  6.922268834604E+01  6.705572182120E+01  6.490180621875E+01  6.276254492776E+01
  6.063955549415E+01  5.853446618445E+01  5.644891233462E+01  5.438453248673E+01
  5.234296431813E+01  5.032584036919E+01  4.833478357746E+01  4.637140262799E+01
  4.443728713143E+01  4.253400264359E+01  4.066308554225E+01  3.882603777915E+01
  3.702432152741E+01  3.525935374677E+01  3.353250069155E+01  3.184507238824E+01
  3.019831711221E+01  2.859341589501E+01  2.703147709610E+01  2.551353107457E+01
  2.404052499876E+01  2.261331783300E+01  2.123267554237E+01  1.989926655768E+01
  1.861365754369E+01  1.737630951428E+01  1.618757433849E+01  1.504769168120E+01
  1.395678642137E+01  1.291486658997E+01  1.192182186751E+01  1.097742267932E+01
  1.008131992344E+01  9.233045362699E+00  8.432012708250E+00  7.677519417193E+00
  6.968749221292E+00  6.304775397794E+00  5.684564786642E+00  5.106982551064E+00
  4.570797670761E+00  4.074689148615E+00  3.617252903227E+00  3.197009310676E+00
  2.812411349779E+00  2.461853296065E+00  2.143679900594E+00  1.856195981029E+00
  1.597676344056E+00  1.366375950467E+00  1.160540227370E+00  9.784154259653E-01
  8.182589186038E-01  6.783493253858E-01  5.569963586696E-01  4.525502736351E-01
  3.634108146556E-01  2.880355507615E-01  2.249474990256E-01  1.727419422860E-01
  1.300923572519E-01  9.575538065046E-02  6.857475455941E-02  4.748420726695E-02
  3.150924267782E-02  1.976782916818E-02  1.146999753487E-02  5.916376902281E-03
  2.495716702719E-03  6.814616624823E-04  2.746460608461E-05  1.629383254668E-04
  7.867622422755E-04  1.661271634230E-03  2.605666355846E-03  3.489181873886E-03
  4.224167752575E-03  4.759217254641E-03  5.072486377776E-03  5.165331457157E-03
  5.056381606331E-03  4.776146057590E-03  4.362237357791E-03  3.855269970084E-03
  3.295470839827E-03  2.720014715919E-03  2.161073357838E-03  1.644545118285E-03
  1.189410679202E-03  8.076427913960E-04  5.045834843924E-04  2.796919911849E-04
  1.275610071851E-04  3.909809223429E-05  2.773006125711E-06  5.840265801682E-06
  3.545869990469E-05  7.964549566228E-05  1.280202297008E-04  1.723135484264E-04
  2.066343345796E-04  2.275071785622E-04  2.337076557823E-04  2.259353407014E-04
  2.063729416247E-04  1.781839869761E-04  1.450010373198E-04  1.104516919721E-04
  7.776129767331E-05  4.946013895079E-05  2.721011026820E-05  1.175268307967E-05
  2.967647119413E-06  2.178128514284E-08  1.579232149475E-06  6.041565995129E-06
  1.178544449000E-05  1.736946886156E-05  2.168835605448E-05  2.406132890071E-05
  2.425126600162E-05  2.242051936816E-05  1.903718704164E-05  1.475106048281E-05
  1.026083769438E-05  6.193323612333E-06  3.011513784707E-06  9.623854496316E-07
  6.793295580365E-08  0.000000000000E+00  0.000000000000E+00  0.000000000000E+00
  0.000000000000E+00  0.000000000000E+00  0.000000000000E+00  0.000000000000E+00
  0.000000000000E+00  0.000000000000E+00  0.000000000000E+00  0.000000000000E+00
  0.000000000000E+00  0.000000000000E+00  0.000000000000E+00  0.000000000000E+00
  0.000000000000E+00  0.000000000000E+00  0.000000000000E+00  0.000000000000E+00
  0.000000000000E+00  0.000000000000E+00  0.000000000000E+00  0.000000000000E+00
  0.000000000000E+00  0.000000000000E+00  0.000000000000E+00  0.000000000000E+00
  0.000000000000E+00  0.000000000000E+00  0.000000000000E+00  0.000000000000E+00
  0.000000000000E+00  0.000000000000E+00  0.000000000000E+00  0.000000000000E+00
  0.000000000000E+00  0.000000000000E+00  0.000000000000E+00  0.000000000000E+00
  0.000000000000E+00  0.000000000000E+00  0.000000000000E+00  0.000000000000E+00
  0.000000000000E+00  0.000000000000E+00  0.000000000000E+00  0.000000000000E+00
  0.000000000000E+00  0.000000000000E+00  0.000000000000E+00  0.000000000000E+00
  0.000000000000E+00  0.000000000000E+00  0.000000000000E+00  0.000000000000E+00
  0.000000000000E+00  0.000000000000E+00  0.000000000000E+00  0.000000000000E+00
  0.000000000000E+00  0.000000000000E+00  0.000000000000E+00  0.000000000000E+00
  0.000000000000E+00  0.000000000000E+00  0.000000000000E+00  0.000000000000E+00
  0.000000000000E+00  0.000000000000E+00
</data>
</radfunc>
</pseudocore-charge>
<semilocal-potentials set="lj">
<slps n="5" l="s" j="0.5" rc="1.40324955887" eref="-4.80121435065">
<radfunc>
<data npts="290">
 -8.603007592599E+00 -8.607029613844E+00 -8.619046439516E+00 -8.639073528450E+00
 -8.666874288634E+00 -8.703352095209E+00 -8.749715874255E+00 -8.802632772909E+00
 -8.868096062271E+00 -8.938553762176E+00 -9.017576027129E+00 -9.102995819684E+00
 -9.205579937872E+00 -9.311965438334E+00 -9.417481323045E+00 -9.538088768998E+00
 -9.675752195099E+00 -9.805052429287E+00 -9.949045972178E+00 -1.010917696135E+01
 -1.028697480305E+01 -1.044300942929E+01 -1.061222716626E+01 -1.079549695501E+01
 -1.099369804145E+01 -1.120770989745E+01 -1.143840006947E+01 -1.162287035055E+01
 -1.181753613556E+01 -1.202271928061E+01 -1.223871873323E+01 -1.246580522560E+01
 -1.270421557080E+01 -1.295414659377E+01 -1.321574874101E+01 -1.348911942689E+01
 -1.377429618821E+01 -1.407124973279E+01 -1.427571376105E+01 -1.448531758487E+01
 -1.469999421299E+01 -1.491965898633E+01 -1.514420875910E+01 -1.537352112259E+01
 -1.560745367932E+01 -1.584584337508E+01 -1.608850589599E+01 -1.633523513751E+01
 -1.658580275133E+01 -1.683995777561E+01 -1.709742635291E+01 -1.735791153914E+01
 -1.762109320564E+01 -1.788662803521E+01 -1.815414961139E+01 -1.842326859896E+01
 -1.869357301197E+01 -1.896462856416E+01 -1.923597909536E+01 -1.950714706565E+01
 -1.977763410833E+01 -2.004692163140E+01 -2.031447145648E+01 -2.057972648376E+01
 -2.084211137089E+01 -2.110103321459E+01 -2.135588222345E+01 -2.148158439869E+01
 -2.160603237217E+01 -2.172914545701E+01 -2.185084202824E+01 -2.197103954041E+01
 -2.208965454455E+01 -2.220660270462E+01 -2.232179881317E+01 -2.243515680648E+01
 -2.254658977914E+01 -2.265600999801E+01 -2.276332891584E+01 -2.286845718447E+01
 -2.297130466770E+01 -2.307178045418E+01 -2.316979287014E+01 -2.326524949235E+01
 -2.335805716149E+01 -2.344812199597E+01 -2.353534940661E+01 -2.361964411237E+01
 -2.370091015733E+01 -2.377905092936E+01 -2.385396918069E+01 -2.392556705075E+01
 -2.399374609174E+01 -2.405840729715E+01 -2.411945113383E+01 -2.417677757794E+01
 -2.423028615528E+01 -2.427987598649E+01 -2.432544583767E+01 -2.436689417680E+01
 -2.440411923681E+01 -2.443701908554E+01 -2.446549170345E+01 -2.448943506955E+01
 -2.450874725632E+01 -2.452332653411E+01 -2.453307148588E+01 -2.453788113286E+01
 -2.453765507192E+01 -2.453229362530E+01 -2.452169800363E+01 -2.450577048278E+01
 -2.448441459553E+01 -2.445753533877E+01 -2.442503939713E+01 -2.438683538379E+01
 -2.434283409940E+01 -2.429294880997E+01 -2.423709554460E+01 -2.417519341394E+01
 -2.410716495024E+01 -2.403293646997E+01 -2.395243845981E+01 -2.386560598692E+01
 -2.377237913437E+01 -2.367270346272E+01 -2.356653049840E+01 -2.345381825015E+01
 -2.333453175429E+01 -2.320864365005E+01 -2.307613478635E+01 -2.293699486157E+01
 -2.279122309841E+01 -2.263882895658E+01 -2.247983288654E+01 -2.231426712898E+01
 -2.214217656556E+01 -2.196361962833E+01 -2.177866927698E+01 -2.158741405535E+01
 -2.138995924136E+01 -2.118642810726E+01 -2.097696331080E+01 -2.076172844136E+01
 -2.054090974949E+01 -2.031471809266E+01 -2.008339113509E+01 -1.984719584462E+01