<?xml version="1.0" encoding="UTF-8" ?>
<psml version="1.1" energy_unit="hartree" length_unit="bohr"
 uuid="f03f5cf0-539f-11e8-6d4f-2940f67ca918"
 xmlns="http://esl.cecam.org/PSML/ns/1.1">
<provenance creator="ONCVPSP-3.3.0+psml-3.3.0-73 (fully-relativistic)"
 date="2018-05-09">
<annotation action="semilocal-pseudopotential-generation"
 action-cont="projectors-generation" />
<input-file name="oncvpsp-input">
<![CDATA[# atsym z nc nv iexc psfile
Tl 81 12 3 -116133 upf
# n l f
1 0 2.0
2 0 2.0
2 1 6.0
3 0 2.0
3 1 6.0
3 2 10.0
4 0 2.0
4 1 6.0
4 2 10.0
5 0 2.0
5 1 6.0
4 3 14.0
5 2 10.0
6 0 2.0
6 1 1.0
# lmax
2
# l rc ep ncon nbas qcut
0 2.1 0.0 4 7 2.9
1 2.5 0.0 4 7 2.6
2 2.0 0.0 4 8 7.4
# lloc lpopt rc5 dvloc0
4 5 2.0 0.0
# l nproj debl
0 2 2.6
1 2 3.1
2 2 1.0
# icmod fcfact
3 7.0 1.3
# epsh1 epsh2 depsh
-12.0 12.0 0.02
# rlmax drl
6.0 0.01
 0
]]>
</input-file>
</provenance>
<pseudo-atom-spec atomic-label="Tl" atomic-number="81" z-pseudo="13"
 flavor="Hamann&apos;s oncvpsp" relativity="dirac" spin-dft="no"
 core-corrections="yes">
<annotation pseudo-energy="-50.6049608717" />
<exchange-correlation>
<annotation oncvpsp-xc-code="-116133" oncvpsp-xc-type="libxc-interface" />
<libxc-info number-of-functionals="2">
<functional name="Perdew, Burke &amp; Ernzerhof SOL (GGA)" type="exchange"
 id="116" />
<functional name="Perdew, Burke &amp; Ernzerhof SOL (GGA)" type="correlation"
 id="133" />
</libxc-info>
</exchange-correlation>
<valence-configuration total-valence-charge="13">
<shell n="5" l="d" occupation="10" />
<shell n="6" l="s" occupation="2" />
<shell n="6" l="p" occupation="1" />
</valence-configuration>
</pseudo-atom-spec>
<grid npts="457">
<annotation type="sampled from oncvpsp log grid"
 recipe="r(i:1..N) = r1*exp(a*(i-1)) + r=0; resampled"
 recipe-cont="r1: scale; a: step" scale="0.617283950617E-05"
 step="0.119285708653E-01" delta="0.500000000000E-02" rmax="44.0862366899" />
<grid-data>
  0.000000000000E+00  5.034229527132E-03  1.005547840830E-02  1.508482106348E-02
  2.008502899497E-02  2.519429444232E-02  3.049231521517E-02  3.560713762894E-02
  4.108688469256E-02  4.629225516251E-02  5.153863959675E-02  5.669921561583E-02
  6.237652131689E-02  6.780859383762E-02  7.283964381425E-02  7.824397190261E-02
  8.404927342464E-02  8.921472189043E-02  9.469762530576E-02  1.005174936213E-01
  1.066950358184E-01  1.119093217371E-01  1.173784346723E-01  1.231148282578E-01
  1.291315647484E-01  1.354423447633E-01  1.420615384838E-01  1.472373699362E-01
  1.526017762239E-01  1.581616278312E-01  1.639240455596E-01  1.698964096482E-01
  1.760863692255E-01  1.825018521063E-01  1.891510749455E-01  1.960425537609E-01
  2.031851148411E-01  2.105879060489E-01  2.156723404525E-01  2.208795334404E-01
  2.262124488958E-01  2.316741222619E-01  2.372676622698E-01  2.429962527077E-01
  2.488631542330E-01  2.548717062288E-01  2.610253287040E-01  2.673275242402E-01
  2.737818799855E-01  2.803920696959E-01  2.871618558266E-01  2.940950916737E-01
  3.011957235671E-01  3.084677931169E-01  3.159154395139E-01  3.235429018855E-01
  3.313545217086E-01  3.393547452808E-01  3.475481262508E-01  3.559393282110E-01
  3.645331273513E-01  3.733344151781E-01  3.823482012982E-01  3.915796162703E-01
  4.010339145255E-01  4.107164773579E-01  4.206328159872E-01  4.256804097790E-01
  4.307885746964E-01  4.359580375927E-01  4.411895340438E-01  4.464838084524E-01
  4.518416141538E-01  4.572637135236E-01  4.627508780859E-01  4.683038886230E-01
  4.739235352864E-01  4.796106177099E-01  4.853659451224E-01  4.911903364639E-01
  4.970846205014E-01  5.030496359474E-01  5.090862315788E-01  5.151952663578E-01
  5.213776095540E-01  5.276341408687E-01  5.339657505591E-01  5.403733395658E-01
  5.468578196406E-01  5.534201134763E-01  5.600611548380E-01  5.667818886961E-01
  5.735832713604E-01  5.804662706168E-01  5.874318658642E-01  5.944810482545E-01
  6.016148208336E-01  6.088341986836E-01  6.161402090678E-01  6.235338915766E-01
  6.310162982755E-01  6.385884938548E-01  6.462515557811E-01  6.540065744505E-01
  6.618546533439E-01  6.697969091840E-01  6.778344720942E-01  6.859684857593E-01
  6.942001075884E-01  7.025305088795E-01  7.109608749861E-01  7.194924054859E-01
  7.281263143517E-01  7.368638301239E-01  7.457061960854E-01  7.546546704385E-01
  7.637105264837E-01  7.728750528015E-01  7.821495534351E-01  7.915353480764E-01
  8.010337722533E-01  8.106461775203E-01  8.203739316506E-01  8.302184188304E-01
  8.401810398563E-01  8.502632123346E-01  8.604663708826E-01  8.707919673332E-01
  8.812414709412E-01  8.918163685925E-01  9.025181650156E-01  9.133483829958E-01
  9.243085635918E-01  9.354002663549E-01  9.466250695511E-01  9.579845703857E-01
  9.694803852304E-01  9.811141498531E-01  9.928875196514E-01  1.004802169887E+00
  1.016859795926E+00  1.029062113477E+00  1.041410858839E+00  1.053907789145E+00
  1.066554682614E+00  1.079353338806E+00  1.092305578871E+00  1.105413245818E+00
  1.118678204768E+00  1.132102343225E+00  1.145687571344E+00  1.159435822200E+00
  1.173349052066E+00  1.187429240691E+00  1.201678391579E+00  1.216098532278E+00
  1.230691714666E+00  1.245460015242E+00  1.260405535424E+00  1.275530401850E+00
  1.290836766672E+00  1.306326807872E+00  1.322002729566E+00  1.337866762321E+00
  1.353921163469E+00  1.370168217431E+00  1.386610236040E+00  1.403249558872E+00
  1.420088553579E+00  1.437129616222E+00  1.454375171616E+00  1.471827673676E+00
  1.489489605760E+00  1.507363481029E+00  1.525451842801E+00  1.543757264915E+00
  1.562282352094E+00  1.581029740319E+00  1.600002097203E+00  1.619202122369E+00
  1.638632547838E+00  1.658296138412E+00  1.678195692073E+00  1.698334040378E+00
  1.718714048862E+00  1.739338617448E+00  1.760210680858E+00  1.781333209028E+00
  1.802709207536E+00  1.824341718027E+00  1.846233818643E+00  1.868388624467E+00
  1.890809287960E+00  1.913498999416E+00  1.936460987409E+00  1.959698519258E+00
  1.983214901489E+00  2.007013480307E+00  2.031097642071E+00  2.055470813775E+00
  2.080136463541E+00  2.105098101103E+00  2.130359278316E+00  2.155923589656E+00
  2.181794672732E+00  2.207976208805E+00  2.234471923311E+00  2.261285586390E+00
  2.288421013427E+00  2.315882065588E+00  2.343672650375E+00  2.371796722180E+00
  2.400258282846E+00  2.429061382240E+00  2.458210118827E+00  2.487708640253E+00
  2.517561143936E+00  2.547771877663E+00  2.578345140195E+00  2.609285281877E+00
  2.640596705260E+00  2.672283865723E+00  2.704351272112E+00  2.736803487377E+00
  2.769645129225E+00  2.802880870776E+00  2.836515441225E+00  2.870553626520E+00
  2.905000270038E+00  2.939860273279E+00  2.975138596558E+00  3.010840259717E+00
  3.046970342834E+00  3.083533986948E+00  3.120536394791E+00  3.157982831528E+00
  3.195878625507E+00  3.234229169013E+00  3.273039919041E+00  3.312316398069E+00
  3.352064194846E+00  3.392288965184E+00  3.432996432767E+00  3.474192389960E+00
  3.515882698639E+00  3.558073291023E+00  3.600770170515E+00  3.643979412562E+00
  3.687707165512E+00  3.731959651498E+00  3.776743167316E+00  3.822064085324E+00
  3.867928854348E+00  3.914344000600E+00  3.961316128607E+00  4.008851922151E+00
  4.056958145217E+00  4.105641642959E+00  4.154909342675E+00  4.204768254787E+00
  4.255225473844E+00  4.306288179530E+00  4.357963637685E+00  4.410259201337E+00
  4.463182311753E+00  4.516740499494E+00  4.570941385488E+00  4.625792682114E+00
  4.681302194299E+00  4.737477820631E+00  4.794327554478E+00  4.851859485132E+00
  4.910081798954E+00  4.969002780541E+00  5.028630813908E+00  5.088974383674E+00
  5.150042076279E+00  5.211842581194E+00  5.274384692168E+00  5.337677308474E+00
  5.401729436176E+00  5.466550189410E+00  5.532148791683E+00  5.598534577183E+00
  5.665716992109E+00  5.733705596015E+00  5.802510063167E+00  5.872140183925E+00
  5.942605866132E+00  6.013917136526E+00  6.086084142164E+00  6.159117151870E+00
  6.233026557692E+00  6.307822876385E+00  6.383516750901E+00  6.460118951912E+00
  6.537640379335E+00  6.616092063887E+00  6.695485168654E+00  6.775830990677E+00
  6.857140962566E+00  6.939426654116E+00  7.022699773966E+00  7.106972171253E+00
  7.192255837308E+00  7.278562907356E+00  7.365905662244E+00  7.454296530191E+00
  7.543748088554E+00  7.634273065616E+00  7.725884342404E+00  7.818594954512E+00
  7.912418093967E+00  8.007367111094E+00  8.103455516427E+00  8.200696982624E+00
  8.299105346416E+00  8.398694610573E+00  8.499478945900E+00  8.601472693251E+00
  8.704690365570E+00  8.809146649956E+00  8.914856409756E+00  9.021834686673E+00
  9.130096702913E+00  9.239657863348E+00  9.350533757708E+00  9.462740162801E+00
  9.576293044754E+00  9.691208561291E+00  9.807503064027E+00  9.925193100795E+00
  1.004429541800E+01  1.016482696302E+01  1.028680488658E+01  1.041024654522E+01
  1.053516950376E+01  1.066159153780E+01  1.078953063626E+01  1.091900500389E+01
  1.105003306394E+01  1.118263346071E+01  1.131682506223E+01  1.145262696298E+01
  1.159005848654E+01  1.172913918838E+01  1.186988885864E+01  1.201232752494E+01
  1.215647545524E+01  1.230235316070E+01  1.244998139863E+01  1.259938117541E+01
  1.275057374952E+01  1.290358063451E+01  1.305842360213E+01  1.321512468535E+01
  1.337370618158E+01  1.353419065576E+01  1.369660094363E+01  1.386096015495E+01
  1.402729167681E+01  1.419561917693E+01  1.436596660705E+01  1.453835820634E+01
  1.471281850481E+01  1.488937232687E+01  1.506804479479E+01  1.524886133233E+01
  1.543184766832E+01  1.561702984034E+01  1.580443419842E+01  1.599408740880E+01
  1.618601645771E+01  1.638024865520E+01  1.657681163907E+01  1.677573337873E+01
  1.697704217928E+01  1.718076668543E+01  1.738693588566E+01  1.759557911628E+01
  1.780672606568E+01  1.802040677847E+01  1.823665165981E+01  1.845549147973E+01
  1.867695737748E+01  1.890108086601E+01  1.912789383640E+01  1.935742856244E+01
  1.958971770519E+01  1.982479431765E+01  2.006269184946E+01  2.030344415166E+01
  2.054708548148E+01  2.079365050726E+01  2.104317431334E+01  2.129569240510E+01
  2.155124071396E+01  2.180985560253E+01  2.207157386976E+01  2.233643275620E+01
  2.260446994927E+01  2.287572358867E+01  2.315023227173E+01  2.342803505899E+01
  2.370917147970E+01  2.399368153745E+01  2.428160571590E+01  2.457298498449E+01
  2.486786080431E+01  2.516627513396E+01  2.546827043557E+01  2.577388968079E+01
  2.608317635696E+01  2.639617447325E+01  2.671292856693E+01  2.703348370973E+01
  2.735788551425E+01  2.768618014042E+01  2.801841430210E+01  2.835463527373E+01
  2.869489089701E+01  2.903922958778E+01  2.938770034283E+01  2.974035274694E+01
  3.009723697991E+01  3.045840382367E+01  3.082390466955E+01  3.119379152558E+01
  3.156811702389E+01  3.194693442818E+01  3.233029764132E+01  3.271826121301E+01
  3.311088034757E+01  3.350821091174E+01  3.391030944268E+01  3.431723315599E+01
  3.472903995386E+01  3.514578843331E+01  3.556753789451E+01  3.599434834924E+01
  3.642628052944E+01  3.686339589579E+01  3.730575664654E+01  3.775342572630E+01
  3.820646683501E+01  3.866494443703E+01  3.912892377028E+01  3.959847085552E+01
  4.007365250579E+01  4.055453633586E+01  4.104119077189E+01  4.153368506115E+01
  4.203208928188E+01  4.253647435326E+01  4.304691204550E+01  4.356347499005E+01
  4.408623668993E+01
</grid-data>
</grid>
<valence-charge total-charge="13" is-unscreening-charge="yes"
 rescaled-to-z-pseudo="no">
<radfunc>
<data npts="457">
  1.602409770653E-03  1.604149306284E-03  1.610133255504E-03  1.622731404923E-03
  1.645680165572E-03  1.685473163768E-03  1.752022878552E-03  1.850017693395E-03
  2.004102224762E-03  2.211040555143E-03  2.494531675786E-03  2.863025770771E-03
  3.392242352715E-03  4.042897488901E-03  4.792745409920E-03  5.780085473138E-03
  7.080892707583E-03  8.475736840584E-03  1.023171118682E-02  1.244238924504E-02
  1.522529609814E-02  1.796152099691E-02  2.124989578168E-02  2.520083108071E-02
  2.994629799633E-02  3.564384991745E-02  4.248133046716E-02  4.849052308294E-02
  5.537542497190E-02  6.326063677935E-02  7.228768846704E-02  8.261714358027E-02
  9.443091736607E-02  1.079348183475E-01  1.233613197896E-01  1.409725630061E-01
  1.610635883315E-01  1.839657814554E-01  2.009773034907E-01  2.195230716055E-01
  2.397329297330E-01  2.617463981971E-01  2.857131917957E-01  3.117937319931E-01
  3.401596459398E-01  3.709942436835E-01  4.044929634196E-01  4.408637729415E-01
  4.803275135894E-01  5.231181709498E-01  5.694830543324E-01  6.196828646429E-01
  6.739916276989E-01  7.326964673059E-01  7.960971895593E-01  8.645056468921E-01
  9.382448474100E-01  1.017647772089E+00  1.103055859570E+00  1.194817115637E+00
  1.293283802171E+00  1.398809658563E+00  1.511746607439E+00  1.632440896289E+00
  1.761228627504E+00  1.898430631596E+00  2.044346642432E+00  2.120658700242E+00
  2.199248739369E+00  2.280145248218E+00  2.363374029756E+00  2.448957930359E+00
  2.536916556598E+00  2.627265980104E+00  2.720018430797E+00  2.815181978816E+00
  2.912760205606E+00  3.012751864741E+00  3.115150533162E+00  3.219944253654E+00
  3.327115169527E+00  3.436639152599E+00  3.548485425768E+00  3.662616181587E+00
  3.778986198469E+00  3.897542456308E+00  4.018223753515E+00  4.140960327634E+00
  4.265673481951E+00  4.392275220670E+00  4.520667895490E+00  4.650743866578E+00
  4.782385181200E+00  4.915463273427E+00  5.049838688596E+00  5.185360836347E+00
  5.321867776292E+00  5.459186040506E+00  5.597130497230E+00  5.735504260260E+00
  5.874098648647E+00  6.012693201406E+00  6.151055751954E+00  6.288942567047E+00
  6.426098554906E+00  6.562257547185E+00  6.697142659254E+00  6.830466733106E+00
  6.961932866932E+00  7.091235035061E+00  7.218058801609E+00  7.342082130645E+00
  7.462976295198E+00  7.580406886724E+00  7.694034925990E+00  7.803518075480E+00
  7.908511952568E+00  8.008671541707E+00  8.103652702839E+00  8.193113772080E+00
  8.276717249552E+00  8.354131567932E+00  8.425032934002E+00  8.489107234075E+00
  8.546051992822E+00  8.595578373574E+00  8.637413206816E+00  8.671301032163E+00
  8.697006137836E+00  8.714314580344E+00  8.723036165961E+00  8.723006374526E+00
  8.714088205220E+00  8.696173923256E+00  8.669186685958E+00  8.633082026377E+00
  8.587849172682E+00  8.533512181770E+00  8.470130866202E+00  8.397801494470E+00
  8.316657245886E+00  8.226868403017E+00  8.128642266571E+00  8.022222780013E+00
  7.907889853863E+00  7.785958382691E+00  7.656776951164E+00  7.520726229139E+00
  7.378217059658E+00  7.229688247790E+00  7.075604062452E+00  6.916451467629E+00
  6.752737103716E+00  6.584984043887E+00  6.413728354487E+00  6.239515492281E+00
  6.062896574868E+00  5.884424563720E+00  5.704650401911E+00  5.524119150648E+00
  5.343366170174E+00  5.162913391317E+00  4.983265723971E+00  4.804907647958E+00
  4.628300030169E+00  4.453877209410E+00  4.282044387203E+00  4.113175358776E+00
  3.947610613791E+00  3.785655830989E+00  3.627580785027E+00  3.473618677394E+00
  3.323965896619E+00  3.178782206039E+00  3.038191350471E+00  2.902282066218E+00
  2.771109472231E+00  2.644696813961E+00  2.523037525687E+00  2.406097571976E+00
  2.293818024519E+00  2.186117826983E+00  2.082896697757E+00  1.984038118567E+00
  1.889412355975E+00  1.798879462573E+00  1.712292205440E+00  1.629498870897E+00
  1.550345896902E+00  1.474680287479E+00  1.402351767435E+00  1.333214640245E+00
  1.267129317540E+00  1.203963495084E+00  1.143592957598E+00  1.085902003313E+00
  1.030783488702E+00  9.781385043120E-01  9.278753530723E-01  8.799069505289E-01
  8.341476923361E-01  7.905135323947E-01  7.489220274821E-01  7.092925348410E-01
  6.715464730944E-01  6.356074507761E-01  6.014013100071E-01  5.688561806041E-01
  5.379024944539E-01  5.084729782193E-01  4.805026252124E-01  4.539286501225E-01
  4.286904304907E-01  4.047294390991E-01  3.819891716180E-01  3.604150738917E-01
  3.399544731427E-01  3.205565275081E-01  3.021722290038E-01  2.847544374717E-01
  2.682578522508E-01  2.526389551147E-01  2.378559701739E-01  2.238688156061E-01
  2.106390553323E-01  1.981298499134E-01  1.863059070637E-01  1.751334320604E-01
  1.645800782899E-01  1.546148981420E-01  1.452082944322E-01  1.363319725069E-01
  1.279588931613E-01  1.200632264820E-01  1.126203066826E-01  1.056065880410E-01
  9.899960195520E-02  9.277791517409E-02  8.692108922992E-02  8.140964108646E-02
  7.622500501072E-02  7.134949566669E-02  6.676627242243E-02  6.245930485630E-02
  5.841333944287E-02  5.461386739523E-02  5.104709363695E-02  4.769990687476E-02
  4.455985074079E-02  4.161509597224E-02  3.885441359551E-02  3.626714908113E-02
  3.384319743656E-02  3.157297920350E-02  2.944741732757E-02  2.745791486881E-02
  2.559633352253E-02  2.385497292127E-02  2.222655068948E-02  2.070418322512E-02
  1.928136718212E-02  1.795196163010E-02  1.671017086902E-02  1.555052787756E-02
  1.446787837539E-02  1.345736548103E-02  1.251441494766E-02  1.163472096081E-02
  1.081423248247E-02  1.004914012741E-02  9.335863557817E-03  8.671039383319E-03
  8.051509554300E-03  7.474310236094E-03  6.936661152765E-03  6.435955389103E-03
  5.969749639748E-03  5.535754894468E-03  5.131827548665E-03  4.755960928202E-03
  4.406277217585E-03  4.081019780447E-03  3.778545861175E-03  3.497319656380E-03
  3.235905744750E-03  2.992962863715E-03  2.767238021163E-03  2.557560930334E-03
  2.362838755938E-03  2.182051159380E-03  2.014245631017E-03  1.858533097260E-03
  1.714083790422E-03  1.580123369231E-03  1.455929278053E-03  1.340827332994E-03
  1.234188523262E-03  1.135426016381E-03  1.043992356112E-03  9.593768422721E-04
  8.811030819292E-04  8.087267018505E-04  7.418332124565E-04  6.800360139320E-04
  6.229745355728E-04  5.703124998678E-04  5.217363032550E-04  4.769535059151E-04
  4.356914234018E-04  3.976958133233E-04  3.627296507035E-04  3.305719860441E-04
  3.010168804942E-04  2.738724128914E-04  2.489597537869E-04  2.261123018887E-04
  2.051748786622E-04  1.860029771107E-04  1.684620610242E-04  1.524269112282E-04
  1.377810155957E-04  1.244159997924E-04  1.122310959269E-04  1.011326464561E-04
  9.103364087037E-05  8.185328284152E-05  7.351658566848E-05  6.595399399962E-05
  5.910102994581E-05  5.289796182909E-05  4.728949393594E-05  4.222447576367E-05
  3.765562936220E-05  3.353929348282E-05  2.983518334948E-05  2.650616496685E-05
  2.351804297236E-05  2.083936112700E-05  1.844121462109E-05  1.629707344617E-05
  1.438261615355E-05  1.267557338234E-05  1.115558059663E-05  9.804039521628E-06
  8.603987813073E-06  7.539976533622E-06  6.597955043249E-06  5.765162940165E-06
  5.030028713344E-06  4.382074788794E-06  3.811828669229E-06  3.310739881586E-06
  2.871102459091E-06  2.485982694880E-06  2.149151912928E-06  1.855024009515E-06
  1.598597525042E-06  1.375402012016E-06  1.181448470578E-06  1.013183628387E-06
  8.674478470507E-07  7.414364427951E-07  6.326642147323E-07  5.389329800361E-07
  4.583019215418E-07  3.890605598076E-07  3.297041684817E-07  2.789114588941E-07
  2.355243671080E-07  1.985297841731E-07  1.670430779812E-07  1.402932628809E-07
  1.176096810073E-07  9.841006707999E-08  8.218987615984E-08  6.851276149153E-08
  5.700209704911E-08  4.733344670389E-08  3.922788901833E-08  3.244611350283E-08
  2.678321073175E-08  2.206408498065E-08  1.813942400363E-08  1.488216620742E-08
  1.218441079153E-08  9.954721408832E-09  8.115778559487E-09  6.602340267144E-09
  5.359474606910E-09  4.341031368099E-09  3.508323552612E-09  2.828992543655E-09
  2.276033644353E-09  1.826961290627E-09  1.463095614836E-09  1.168954171661E-09
  9.317345713808E-10  7.408754986268E-10  5.876851483371E-10  4.650274976963E-10
  3.670580674346E-10  2.890019213292E-10  2.269676217627E-10  1.777917137115E-10
  1.389090607812E-10  1.082450153446E-10  8.412598017742E-11  6.520542019342E-11
  5.040281817918E-11  3.885344533929E-11  2.986714282994E-11  2.289459047491E-11
  1.749977911222E-11  1.333760852811E-11  1.013570818413E-11  7.679726928779E-12
  5.801464151346E-12  4.369321515247E-12  3.280644257000E-12  2.455596473280E-12
  1.832277953282E-12  1.362842784589E-12  1.010423761139E-12  7.467029276660E-13
  5.499985904078E-13  4.037638241481E-13  2.954117783107E-13  2.153996667309E-13
  1.565168453680E-13  1.133333638503E-13  8.177426975670E-14  5.879211858479E-14
  4.211591045493E-14  3.005929550761E-14  2.137457857593E-14  1.514198745126E-14
  1.068599384079E-14  7.512311505795E-15  5.260639657970E-15  3.669350807971E-15
  2.549205144549E-15  1.763859976493E-15  1.215474403396E-15  8.341194784590E-16
  5.700192020273E-16  3.878887723271E-16  2.628202366141E-16  1.773051027718E-16
  1.190888233451E-16  7.958799156284E-17  5.298082781401E-17  3.510760821951E-17
  2.315621509915E-17  0.000000000000E+00  0.000000000000E+00  0.000000000000E+00
  0.000000000000E+00
</data>
</radfunc>
</valence-charge>
<pseudocore-charge matching-radius="1.10541324582"
 number-of-continuous-derivatives="4">
<annotation model-charge-form="Teter function with specified parameters" />
<radfunc>
<data npts="290">
  5.386473588578E+01  5.386264735333E+01  5.385640373531E+01  5.384598625937E+01
  5.383150036328E+01  5.381244933199E+01  5.378816306533E+01  5.376034494619E+01
  5.372578401709E+01  5.368840305336E+01  5.364625029709E+01  5.360041145251E+01
  5.354498237412E+01  5.348705704478E+01  5.342915495862E+01  5.336241499386E+01
  5.328550111914E+01  5.321253455377E+01  5.313043581969E+01  5.303807795460E+01
  5.293419922155E+01  5.284185814513E+01  5.274044518546E+01  5.262908825839E+01
  5.250683547063E+01  5.237264866979E+01  5.222539665996E+01  5.210564685798E+01
  5.197729865753E+01  5.183975746371E+01  5.169239106915E+01  5.153452782415E+01
  5.136545480954E+01  5.118441603152E+01  5.099061066186E+01  5.078319135083E+01
  5.056126264578E+01  5.032387955357E+01  5.015654876606E+01  4.998160005544E+01
  4.979871528012E+01  4.960756588884E+01  4.940781288410E+01  4.919910682469E+01
  4.898108787268E+01  4.875338589026E+01  4.851562059252E+01  4.826740176274E+01
  4.800832953707E+01  4.773799476633E+01  4.745597946291E+01  4.716185734149E+01
  4.685519446274E+01  4.653554998994E+01  4.620247706869E+01  4.585552384078E+01
  4.549423460365E+01  4.511815112730E+01  4.472681414114E+01  4.431976500361E+01
  4.389654756749E+01  4.345671025435E+01  4.299980835154E+01  4.252540654485E+01
  4.203308169998E+01  4.152242590536E+01  4.099304978806E+01  4.072122587840E+01
  4.044458611349E+01  4.016308868679E+01  3.987669367841E+01  3.958536319336E+01
  3.928906150449E+01  3.898775520037E+01  3.868141333797E+01  3.837000760012E+01
  3.805351245783E+01  3.773190533729E+01  3.740516679160E+01  3.707328067711E+01
  3.673623433418E+01  3.639401877241E+01  3.604662886002E+01  3.569406351733E+01
  3.533632591402E+01  3.497342367003E+01  3.460536905983E+01  3.423217921968E+01
  3.385387635758E+01  3.347048796568E+01  3.308204703447E+01  3.268859226855E+01
  3.229016830334E+01  3.188682592226E+01  3.147862227376E+01  3.106562108760E+01
  3.064789288965E+01  3.022551521455E+01  2.979857281533E+01  2.936715786933E+01
  2.893137017925E+01  2.849131736867E+01  2.804711507084E+01  2.759888710972E+01
  2.714676567211E+01  2.669089146978E+01  2.623141389025E+01  2.576849113491E+01
  2.530229034326E+01  2.483298770167E+01  2.436076853536E+01  2.388582738191E+01
  2.340836804494E+01  2.292860362621E+01  2.244675653450E+01  2.196305846976E+01
  2.147775038058E+01  2.099108239352E+01  2.050331371241E+01  2.001471248599E+01
  1.952555564210E+01  1.903612868683E+01  1.854672546695E+01  1.805764789388E+01
  1.756920562794E+01  1.708171572115E+01  1.659550221733E+01  1.611089570828E+01
  1.562823284488E+01  1.514785580212E+01  1.467011169732E+01  1.419535196100E+01
  1.372393165984E+01  1.325620877181E+01  1.279254341360E+01  1.233329702053E+01
  1.187883148010E+01  1.142950821987E+01  1.098568725148E+01  1.054772617238E+01
  1.011597912771E+01  9.690795735015E+00  9.272519974826E+00  8.861489050882E+00
  8.458032224000E+00  8.062469624246E+00  7.675111046494E+00  7.296254735008E+00
  6.926186163148E+00  6.565176814858E+00  6.213482975013E+00  5.871344536233E+00
  5.538983830165E+00  5.216604491687E+00  4.904390364814E+00  4.602504459426E+00
  4.311087968195E+00  4.030259353272E+00  3.760113512393E+00  3.500721034123E+00
  3.252127551842E+00  3.014353205930E+00  2.787392223307E+00  2.571212623064E+00
  2.365756056393E+00  2.170937788326E+00  1.986646828001E+00  1.812746213193E+00
  1.649073453749E+00  1.495441137336E+00  1.351637699497E+00  1.217428358514E+00
  1.092556213935E+00  9.767435058456E-01  8.696930301450E-01  7.710897031378E-01
  6.806022667769E-01  5.978851238821E-01  5.225802906485E-01  4.543194517757E-01
  3.927261016439E-01  3.374177531530E-01  2.880081941875E-01  2.441097701935E-01
  2.053356701133E-01  1.713021919509E-01  1.416309635759E-01  1.159510940607E-01
  9.390123090867E-02  7.513149900969E-02  5.930529806351E-02  4.610093656867E-02
  3.521308228044E-02  2.635401129661E-02  1.925464061754E-02  1.366533211884E-02
  9.356459331576E-03  6.118732192134E-03  3.763278936204E-03  2.121488490509E-03
  1.044620972143E-03  4.031981403291E-04  8.618975224515E-05  1.564229198280E-08
  6.738685982292E-05  2.260122529968E-04  4.271993709670E-04  6.343803781335E-04
  8.215947521581E-04  9.719608101123E-04  1.076167535466E-03  1.131016749890E-03
  1.138043404405E-03  1.102238701631E-03  1.030896983886E-03  9.326029407641E-04
  8.163708439446E-04  6.909423705946E-04  5.642443144205E-04  4.430023026686E-04
  3.325017406752E-04  2.364827911135E-04  1.571524468220E-04  9.529383364416E-05
  5.045090864457E-05  2.116578228886E-05  5.246023878382E-06  4.048662524223E-08
  2.704335053221E-06  1.043694127516E-05  2.067995719270E-05  3.126694539734E-05
  4.052021287724E-05  4.729467572174E-05  5.097243094623E-05  5.141498633629E-05
  4.888260337830E-05  4.393179974713E-05  3.730266203403E-05  2.980723743920E-05
  2.222898342123E-05  1.524120797243E-05  9.349843007132E-06  4.863016162023E-06
  1.887000623655E-06  3.455028975937E-07  1.713858850684E-08  5.845347829033E-07
  1.687897538837E-06  2.976118893973E-06  4.149502177537E-06  4.989804218559E-06
  5.375306671009E-06  5.280771834977E-06  4.764136302885E-06  3.943398132131E-06
  2.968166981589E-06  1.990662408529E-06  1.140553404013E-06  5.070238336275E-07
  1.300039942943E-07  8.702162599101E-10  0.000000000000E+00  0.000000000000E+00
  0.000000000000E+00  0.000000000000E+00  0.000000000000E+00  0.000000000000E+00
  0.000000000000E+00  0.000000000000E+00  0.000000000000E+00  0.000000000000E+00
  0.000000000000E+00  0.000000000000E+00  0.000000000000E+00  0.000000000000E+00
  0.000000000000E+00  0.000000000000E+00  0.000000000000E+00  0.000000000000E+00
  0.000000000000E+00  0.000000000000E+00  0.000000000000E+00  0.000000000000E+00
  0.000000000000E+00  0.000000000000E+00  0.000000000000E+00  0.000000000000E+00
  0.000000000000E+00  0.000000000000E+00
</data>
</radfunc>
</pseudocore-charge>
<semilocal-potentials set="lj">
<slps n="6" l="s" j="0.5" rc="2.10509810110" eref="-0.351734515589">
<radfunc>
<data npts="290">
  4.597390604594E+01  4.594325468519E+01  4.585179632346E+01  4.569977428799E+01
  4.548957117881E+01  4.521520965711E+01  4.486884523887E+01  4.447670825035E+01
  4.399623057215E+01  4.348473565633E+01  4.291790392781E+01  4.231316461505E+01
  4.159764065006E+01  4.086769219018E+01  4.015557748006E+01  3.935572145820E+01
  3.846064508121E+01  3.763681728800E+01  3.673802598495E+01  3.576086502701E+01
  3.470252855077E+01  3.379601816528E+01  3.283563219606E+01  3.182121845105E+01
  3.075313676003E+01  2.963231314746E+01  2.846028708504E+01  2.754895840842E+01
  2.661121979022E+01  2.564846177981E+01  2.466229242125E+01  2.365453420054E+01
  2.262721767255E+01  2.158257168506E+01  2.052301020945E+01  1.945111588645E+01
  1.836962049784E+01  1.728138267528E+01  1.655360372106E+01  1.582503960103E+01
  1.509659874481E+01  1.436919717401E+01  1.364375472661E+01  1.292119127412E+01
  1.220242296891E+01  1.148835855825E+01  1.077989580055E+01  1.007791801740E+01
  9.383290812645E+00  8.696858986900E+00  8.019443672331E+00  7.351839709027E+00
  6.694813280020E+00  6.049099817766E+00  5.415402190393E+00  4.794389171446E+00
  4.186694192262E+00  3.592914371561E+00  3.013609812377E+00  2.449303152169E+00
  1.900479347819E+00  1.367585673335E+00  8.510319043949E-01  3.511906604305E-01
 -1.316021282583E-01 -5.970466638243E-01 -1.044878672861E+00 -1.262116955506E+00
 -1.474868787819E+00 -1.683110856611E+00 -1.886821960930E+00 -2.085982998727E+00
 -2.280576955839E+00 -2.470588897677E+00 -2.656005964012E+00 -2.836817367246E+00
 -3.013014394565E+00 -3.184590414375E+00 -3.351540887412E+00 -3.513863382935E+00
 -3.671557600385E+00 -3.824625396909E+00 -3.973070821131E+00 -4.116900153543E+00
 -4.256121953875E+00 -4.390747115797E+00 -4.520788929272E+00 -4.646263150854E+00
 -4.767188082219E+00 -4.883584657139E+00 -4.995476537103E+00 -5.102890215723E+00
 -5.205855132005E+00 -5.304403792489E+00 -5.398571902209E+00 -5.488398504307E+00
 -5.573926128052E+00 -5.655200944892E+00 -5.732272932051E+00 -5.805196043024E+00
 -5.874028384186E+00 -5.938832396545E+00 -5.999675041481E+00 -6.056627989114E+00
 -6.109767807717E+00 -6.159176152346E+00 -6.204939950620E+00 -6.247151583301E+00
 -6.285909057051E+00 -6.321316166449E+00 -6.353482642057E+00 -6.382524281016E+00
 -6.408563056364E+00 -6.431727200975E+00 -6.452151261723E+00 -6.469976119253E+00
 -6.485348968492E+00 -6.498423254853E+00 -6.509358560971E+00 -6.518320438722E+00
 -6.525480181305E+00 -6.531014530247E+00 -6.535105312408E+00 -6.537939002370E+00
 -6.539706206033E+00 -6.540601061836E+00 -6.540820556737E+00 -6.540563754959E+00
 -6.540030938568E+00 -6.539422660128E+00 -6.538938709007E+00 -6.538776994423E+00
 -6.539132349896E+00 -6.540195265479E+00 -6.542150555932E+00 -6.545175974807E+00
 -6.549440786201E+00 -6.555104307721E+00 -6.562314439820E+00 -6.571206198188E+00
 -6.581900267146E+00 -6.594501593023E+00 -6.609098037195E+00 -6.625759108831E+00
 -6.644534797322E+00 -6.665454523927E+00 -6.688526231268E+00 -6.713735627958E+00
 -6.741045603928E+00 -6.770395829881E+00 -6.801702551808E+00 -6.834858588818E+00