<?xml version="1.0" encoding="UTF-8" ?>
<psml version="1.1" energy_unit="hartree" length_unit="bohr"
 uuid="3cb7ee80-53a0-11e8-5be6-2c7c7bd39286"
 xmlns="http://esl.cecam.org/PSML/ns/1.1">
<provenance creator="ONCVPSP-3.3.0+psml-3.3.0-73 (fully-relativistic)"
 date="2018-05-09">
<annotation action="semilocal-pseudopotential-generation"
 action-cont="projectors-generation" />
<input-file name="oncvpsp-input">
<![CDATA[# atsym z nc nv iexc psfile
O 8 1 2 -116133 upf
# n l f
1 0 2.0
2 0 2.0
2 1 4.0
# lmax
2
# l rc ep ncon nbas qcut
0 1.25 0.0 4 8 8.5
1 1.35 0.0 4 8 9.4
2 1.25 0.1 4 8 6.0
# lloc lpopt rc5 dvloc0
4 5 1.2 0.0
# l nproj debl
0 2 1.0
1 2 1.0
2 1 1.0
# icmod fcfact
3 4 1.5
# epsh1 epsh2 depsh
-12.0 12.0 0.02
# rlmax drl
6.0 0.01
 0
]]>
</input-file>
</provenance>
<pseudo-atom-spec atomic-label="O" atomic-number="8" z-pseudo="6"
 flavor="Hamann&apos;s oncvpsp" relativity="dirac" spin-dft="no"
 core-corrections="yes">
<annotation pseudo-energy="-15.7276839504" />
<exchange-correlation>
<annotation oncvpsp-xc-code="-116133" oncvpsp-xc-type="libxc-interface" />
<libxc-info number-of-functionals="2">
<functional name="Perdew, Burke &amp; Ernzerhof SOL (GGA)" type="exchange"
 id="116" />
<functional name="Perdew, Burke &amp; Ernzerhof SOL (GGA)" type="correlation"
 id="133" />
</libxc-info>
</exchange-correlation>
<valence-configuration total-valence-charge="6">
<shell n="2" l="s" occupation="2" />
<shell n="2" l="p" occupation="4" />
</valence-configuration>
</pseudo-atom-spec>
<grid npts="457">
<annotation type="sampled from oncvpsp log grid"
 recipe="r(i:1..N) = r1*exp(a*(i-1)) + r=0; resampled"
 recipe-cont="r1: scale; a: step" scale="0.625000000000E-04"
 step="0.119285708653E-01" delta="0.500000000000E-02" rmax="44.1243818316" />
<grid-data>
  0.000000000000E+00  5.038585340028E-03  1.006417880273E-02  1.509787304249E-02
  2.010240735005E-02  2.521609353432E-02  3.051869836261E-02  3.563794632140E-02
  4.112243467717E-02  4.633230903787E-02  5.158323284976E-02  5.674827400167E-02
  6.243049193037E-02  6.786726449336E-02  7.290266753181E-02  7.831167165686E-02
  8.412199615352E-02  8.929191396799E-02  9.477956140646E-02  1.006044653004E-01
  1.067873525493E-01  1.120061500728E-01  1.174799950991E-01  1.232213520374E-01
  1.292432944444E-01  1.355595347938E-01  1.421844557004E-01  1.473647654853E-01
  1.527338132677E-01  1.582984754767E-01  1.640658790751E-01  1.700434106874E-01
  1.762387260605E-01  1.826597598689E-01  1.893147358765E-01  1.962121774698E-01
  2.033609185741E-01  2.107701149672E-01  2.158589486230E-01  2.210706470785E-01
  2.264081767816E-01  2.318745758018E-01  2.374729555600E-01  2.432065025990E-01
  2.490784803978E-01  2.550922312285E-01  2.612511780593E-01  2.675588265023E-01
  2.740187668094E-01  2.806346759152E-01  2.874103195305E-01  2.943495542853E-01
  3.014563299240E-01  3.087346915536E-01  3.161887819465E-01  3.238228438978E-01
  3.316412226409E-01  3.396483683203E-01  3.478488385251E-01  3.562473008824E-01
  3.648485357149E-01  3.736574387612E-01  3.826790239627E-01  3.919184263172E-01
  4.013809048022E-01  4.110718453678E-01  4.209967640023E-01  4.260487251704E-01
  4.311613098724E-01  4.363352455909E-01  4.415712685380E-01  4.468701237604E-01
  4.522325652455E-01  4.576593560285E-01  4.631512683008E-01  4.687090835204E-01
  4.743335925227E-01  4.800255956330E-01  4.857859027806E-01  4.916153336139E-01
  4.975147176173E-01  5.034848942287E-01  5.095267129594E-01  5.156410335150E-01
  5.218287259171E-01  5.280906706281E-01  5.344277586757E-01  5.408408917798E-01
  5.473309824811E-01  5.538989542709E-01  5.605457417222E-01  5.672722906228E-01
  5.740795581103E-01  5.809685128076E-01  5.879401349613E-01  5.949954165809E-01
  6.021353615798E-01  6.093609859188E-01  6.166733177498E-01  6.240733975628E-01
  6.315622783336E-01  6.391410256736E-01  6.468107179816E-01  6.545724465974E-01
  6.624273159566E-01  6.703764437481E-01  6.784209610731E-01  6.865620126059E-01
  6.948007567572E-01  7.031383658383E-01  7.115760262283E-01  7.201149385431E-01
  7.287563178056E-01  7.375013936193E-01  7.463514103427E-01  7.553076272668E-01
  7.643713187940E-01  7.735437746195E-01  7.828262999150E-01  7.922202155140E-01
  8.017268581001E-01  8.113475803973E-01  8.210837513621E-01  8.309367563784E-01
  8.409079974550E-01  8.509988934244E-01  8.612108801455E-01  8.715454107073E-01
  8.820039556358E-01  8.925880031034E-01  9.032990591406E-01  9.141386478503E-01
  9.251083116245E-01  9.362096113640E-01  9.474441267004E-01  9.588134562208E-01
  9.703192176954E-01  9.819630483078E-01  9.937466048875E-01  1.005671564146E+00
  1.017739622916E+00  1.029952498391E+00  1.042311928372E+00  1.054819671512E+00
  1.067477507570E+00  1.080287237661E+00  1.093250684513E+00  1.106369692727E+00
  1.119646129040E+00  1.133081882588E+00  1.146678865179E+00  1.160439011562E+00
  1.174364279700E+00  1.188456651057E+00  1.202718130869E+00  1.217150748440E+00
  1.231756557421E+00  1.246537636110E+00  1.261496087743E+00  1.276634040796E+00
  1.291953649286E+00  1.307457093077E+00  1.323146578194E+00  1.339024337133E+00
  1.355092629178E+00  1.371353740728E+00  1.387809985617E+00  1.404463705444E+00
  1.421317269910E+00  1.438373077149E+00  1.455633554074E+00  1.473101156723E+00
  1.490778370604E+00  1.508667711051E+00  1.526771723584E+00  1.545092984267E+00
  1.563634100078E+00  1.582397709279E+00  1.601386481790E+00  1.620603119572E+00
  1.640050357007E+00  1.659730961291E+00  1.679647732826E+00  1.699803505620E+00
  1.720201147688E+00  1.740843561460E+00  1.761733684197E+00  1.782874488408E+00
  1.804268982269E+00  1.825920210056E+00  1.847831252577E+00  1.870005227608E+00
  1.892445290339E+00  1.915154633823E+00  1.938136489429E+00  1.961394127302E+00
  1.984930856830E+00  2.008750027112E+00  2.032855027437E+00  2.057249287766E+00
  2.081936279219E+00  2.106919514570E+00  2.132202548745E+00  2.157788979330E+00
  2.183682447082E+00  2.209886636447E+00  2.236405276084E+00  2.263242139397E+00
  2.290401045070E+00  2.317885857611E+00  2.345700487902E+00  2.373848893757E+00
  2.402335080482E+00  2.431163101448E+00  2.460337058665E+00  2.489861103369E+00
  2.519739436609E+00  2.549976309849E+00  2.580576025567E+00  2.611542937874E+00
  2.642881453128E+00  2.674596030566E+00  2.706691182933E+00  2.739171477128E+00
  2.772041534853E+00  2.805306033271E+00  2.838969705671E+00  2.873037342139E+00
  2.907513790244E+00  2.942403955727E+00  2.977712803196E+00  3.013445356834E+00
  3.049606701116E+00  3.086201981530E+00  3.123236405308E+00  3.160715242172E+00
  3.198643825078E+00  3.237027550979E+00  3.275871881591E+00  3.315182344170E+00
  3.354964532300E+00  3.395224106687E+00  3.435966795968E+00  3.477198397519E+00
  3.518924778289E+00  3.561151875629E+00  3.603885698137E+00  3.647132326514E+00
  3.690897914432E+00  3.735188689406E+00  3.780010953678E+00  3.825371085123E+00
  3.871275538144E+00  3.917730844602E+00  3.964743614737E+00  4.012320538114E+00
  4.060468384571E+00  4.109194005186E+00  4.158504333248E+00  4.208406385247E+00
  4.258907261870E+00  4.310014149013E+00  4.361734318801E+00  4.414075130626E+00
  4.467044032194E+00  4.520648560580E+00  4.574896343307E+00  4.629795099427E+00
  4.685352640620E+00  4.741576872307E+00  4.798475794775E+00  4.856057504312E+00
  4.914330194364E+00  4.973302156697E+00  5.032981782577E+00  5.093377563968E+00
  5.154498094735E+00  5.216352071872E+00  5.278948296735E+00  5.342295676296E+00
  5.406403224411E+00  5.471280063104E+00  5.536935423861E+00  5.603378648948E+00
  5.670619192735E+00  5.738666623048E+00  5.807530622524E+00  5.877220989995E+00
  5.947747641875E+00  6.019120613577E+00  6.091350060940E+00  6.164446261671E+00
  6.238419616811E+00  6.313280652213E+00  6.389040020040E+00  6.465708500280E+00
  6.543297002283E+00  6.621816566311E+00  6.701278365107E+00  6.781693705488E+00
  6.863074029954E+00  6.945430918313E+00  7.028776089333E+00  7.113121402405E+00
  7.198478859234E+00  7.284860605545E+00  7.372278932811E+00  7.460746280005E+00
  7.550275235365E+00  7.640878538189E+00  7.732569080648E+00  7.825359909615E+00
  7.919264228531E+00  8.014295399273E+00  8.110466944064E+00  8.207792547393E+00
  8.306286057962E+00  8.405961490657E+00  8.506833028545E+00  8.608915024888E+00
  8.712222005187E+00  8.816768669249E+00  8.922569893280E+00  9.029640731999E+00
  9.137996420783E+00  9.247652377832E+00  9.358624206366E+00  9.470927696843E+00
  9.584578829205E+00  9.699593775155E+00  9.815988900457E+00  9.933780767263E+00
  1.005298613647E+01  1.017362197011E+01  1.029570543375E+01  1.041925389895E+01
  1.054428494574E+01  1.067081636509E+01  1.079886616147E+01  1.092845255541E+01
  1.105959398607E+01  1.119230911391E+01  1.132661682327E+01  1.146253622515E+01
  1.160008665985E+01  1.173928769977E+01  1.188015915217E+01  1.202272106200E+01
  1.216699371474E+01  1.231299763932E+01  1.246075361099E+01  1.261028265432E+01
  1.276160604617E+01  1.291474531873E+01  1.306972226255E+01  1.322655892970E+01
  1.338527763686E+01  1.354590096850E+01  1.370845178012E+01  1.387295320148E+01
  1.403942863990E+01  1.420790178358E+01  1.437839660498E+01  1.455093736424E+01
  1.472554861261E+01  1.490225519597E+01  1.508108225832E+01  1.526205524542E+01
  1.544519990836E+01  1.563054230726E+01  1.581810881495E+01  1.600792612073E+01
  1.620002123418E+01  1.639442148899E+01  1.659115454686E+01  1.679024840142E+01
  1.699173138224E+01  1.719563215882E+01  1.740197974473E+01  1.761080350166E+01
  1.782213314368E+01  1.803599874141E+01  1.825243072631E+01  1.847145989502E+01
  1.869311741376E+01  1.891743482273E+01  1.914444404060E+01  1.937417736909E+01
  1.960666749752E+01  1.984194750749E+01  2.008005087758E+01  2.032101148811E+01
  2.056486362596E+01  2.081164198948E+01  2.106138169335E+01  2.131411827367E+01
  2.156988769295E+01  2.182872634527E+01  2.209067106141E+01  2.235575911415E+01
  2.262402822352E+01  2.289551656220E+01  2.317026276095E+01  2.344830591408E+01
  2.372968558505E+01  2.401444181207E+01  2.430261511381E+01  2.459424649518E+01
  2.488937745312E+01  2.518804998256E+01  2.549030658235E+01  2.579619026134E+01
  2.610574454447E+01  2.641901347901E+01  2.673604164076E+01  2.705687414044E+01
  2.738155663013E+01  2.771013530969E+01  2.804265693341E+01  2.837916881661E+01
  2.871971884241E+01  2.906435546852E+01  2.941312773414E+01  2.976608526695E+01
  3.012327829015E+01  3.048475762963E+01  3.085057472119E+01  3.122078161784E+01
  3.159543099726E+01  3.197457616923E+01  3.235827108326E+01  3.274657033625E+01
  3.313952918029E+01  3.353720353045E+01  3.393964997282E+01  3.434692577249E+01
  3.475908888176E+01  3.517619794834E+01  3.559831232372E+01  3.602549207161E+01
  3.645779797647E+01  3.689529155219E+01  3.733803505081E+01  3.778609147142E+01
  3.823952456908E+01  3.869839886391E+01  3.916277965027E+01  3.963273300608E+01
  4.010832580215E+01  4.058962571178E+01  4.107670122032E+01  4.156962163496E+01
  4.206845709458E+01  4.257327857972E+01  4.308415792267E+01  4.360116781774E+01
  4.412438183156E+01
</grid-data>
</grid>
<valence-charge total-charge="6" is-unscreening-charge="yes"
 rescaled-to-z-pseudo="no">
<radfunc>
<data npts="457">
  3.237019469857E+00  3.239446798878E+00  3.246700579838E+00  3.258794690355E+00
  3.275593687358E+00  3.297654346843E+00  3.325723906460E+00  3.357802062116E+00
  3.397546501226E+00  3.440398003981E+00  3.488550440894E+00  3.540710410337E+00
  3.603500855122E+00  3.668789630363E+00  3.733716500621E+00  3.808138119160E+00
  3.893354480129E+00  3.973654501327E+00  4.063374507610E+00  4.163511364031E+00
  4.275137971200E+00  4.373479767375E+00  4.480525481821E+00  4.596917829329E+00
  4.723319480796E+00  4.860406904219E+00  5.008862240667E+00  5.128071942123E+00
  5.254337303778E+00  5.387928762779E+00  5.529102947183E+00  5.678097567556E+00
  5.835125544532E+00  6.000368306220E+00  6.173968192370E+00  6.356019908118E+00
  6.546560979688E+00  6.745561178564E+00  6.882877008941E+00  7.023850981337E+00
  7.168408510398E+00  7.316453214706E+00  7.467864982042E+00  7.622497967672E+00
  7.780178537019E+00  7.940703166889E+00  8.103836322591E+00  8.269308331751E+00
  8.436813279475E+00  8.606006953605E+00  8.776504873275E+00  8.947880438667E+00
  9.119663244752E+00  9.291337606861E+00  9.462341351017E+00  9.632064926931E+00
  9.799850906400E+00  9.964993934153E+00  1.012674120200E+01  1.028429351998E+01
  1.043680705999E+01  1.058339584757E+01  1.072313507613E+01  1.085506531398E+01
  1.097819766868E+01  1.109151996347E+01  1.119400396882E+01  1.124085792520E+01
  1.128461371540E+01  1.132514217641E+01  1.136231489553E+01  1.139600456225E+01
  1.142608533563E+01  1.145243322670E+01  1.147492649492E+01  1.149344605791E+01
  1.150787591320E+01  1.151810357086E+01  1.152402049556E+01  1.152552255647E+01
  1.152251048331E+01  1.151489032657E+01  1.150257391998E+01  1.148547934285E+01
  1.146353138001E+01  1.143666197678E+01  1.140481068641E+01  1.136792510707E+01
  1.132596130561E+01  1.127888422510E+01  1.122666807300E+01  1.116929668697E+01
  1.110676387516E+01  1.103907372766E+01  1.096624089629E+01  1.088829083942E+01
  1.080526002885E+01  1.071719611612E+01  1.062415805518E+01  1.052621617922E+01
  1.042345222917E+01  1.031595933187E+01  1.020384192626E+01  1.008721563599E+01
  9.966207087558E+00  9.840953673212E+00  9.711603258399E+00  9.578313833890E+00
  9.441253113248E+00  9.300598076719E+00  9.156534463090E+00  9.009256211576E+00
  8.858964856203E+00  8.705868875667E+00  8.550183002023E+00  8.392127492019E+00
  8.231927365209E+00  8.069811613353E+00  7.906012385862E+00  7.740764156305E+00
  7.574302875134E+00  7.406865113936E+00  7.238687206525E+00  7.070004392211E+00
  6.901049966460E+00  6.732054444061E+00  6.563244739668E+00  6.394843370362E+00
  6.227067684571E+00  6.060129121349E+00  5.894232503660E+00  5.729575368957E+00
  5.566347339966E+00  5.404729538277E+00  5.244894043004E+00  5.087003396547E+00
  4.931210159301E+00  4.777656515037E+00  4.626473928659E+00  4.477782858132E+00
  4.331692522501E+00  4.188300728187E+00  4.047693756061E+00  3.909946312126E+00
  3.775121545033E+00  3.643271133970E+00  3.514435450719E+00  3.388643799768E+00
  3.265914740289E+00  3.146256493366E+00  3.029667437147E+00  2.916136691467E+00
  2.805644791850E+00  2.698164450777E+00  2.593661401488E+00  2.492095316610E+00
  2.393420790498E+00  2.297588370532E+00  2.204545618884E+00  2.114238428130E+00
  2.026613317994E+00  1.941620152337E+00  1.859213121098E+00  1.779350847210E+00
  1.701996795941E+00  1.627118752983E+00  1.554686082478E+00  1.484665984971E+00
  1.417023049707E+00  1.351720057717E+00  1.288717850056E+00  1.227975538860E+00
  1.169450663500E+00  1.113099348206E+00  1.058876456192E+00  1.006735739909E+00
  9.566299870612E-01  9.085111621930E-01  8.623305435703E-01  8.180388551817E-01
  7.755863936738E-01  7.349231500787E-01  6.959989262162E-01  6.587634456798E-01
  6.231664593378E-01  5.891578453102E-01  5.566877034006E-01  5.257064439853E-01
  4.961648713843E-01  4.680142617559E-01  4.412064355757E-01  4.156938247769E-01
  3.914295346467E-01  3.683674005839E-01  3.464620398391E-01  3.256688983692E-01
  3.059442929483E-01  2.872454486862E-01  2.695305321140E-01  2.527586800027E-01
  2.368900240861E-01  2.218857118634E-01  2.077079236616E-01  1.943198861369E-01
  1.816858823992E-01  1.697712589399E-01  1.585424295465E-01  1.479668763818E-01
  1.380131484056E-01  1.286508573132E-01  1.198506711604E-01  1.115843058409E-01
  1.038245145766E-01  9.654507557783E-02  8.972077802174E-02  8.332740649626E-02
  7.734172404624E-02  7.174145395672E-02  6.650526040029E-02  6.161272807101E-02
  5.704434092165E-02  5.278146011594E-02  4.880630130232E-02  4.510191131131E-02
  4.165214437367E-02  3.844163795250E-02  3.545578827786E-02  3.268072566890E-02
  3.010328972412E-02  2.771100445691E-02  2.549205344935E-02  2.343525509386E-02
  2.153003798806E-02  1.976641654490E-02  1.813496687569E-02  1.662680300019E-02
  1.523355343386E-02  1.394733819816E-02  1.276074629598E-02  1.166681369015E-02
  1.065900181880E-02  9.731176677430E-03  8.877588493443E-03  8.092852014878E-03
  7.371927431367E-03  6.710101941411E-03  6.102971976521E-03  5.546426089249E-03
  5.036628508841E-03  4.570003365096E-03  4.143219578089E-03  3.753176408708E-03
  3.396989662432E-03  3.071978536521E-03  2.775653098730E-03  2.505702383828E-03
  2.259983092641E-03  2.036508876928E-03  1.833440192281E-03  1.649074700293E-03
  1.481838200478E-03  1.330276071927E-03  1.193045204284E-03  1.068906397444E-03
  9.567172093429E-04  8.554252312985E-04  7.640617705898E-04  6.817359203060E-04
  6.076289969146E-04  5.409893265196E-04  4.811273613508E-04  4.274111086561E-04
  3.792618548348E-04  3.361501683422E-04  2.975921656050E-04  2.631460249037E-04
  2.324087338862E-04  2.050130570859E-04  1.806247104999E-04  1.589397309534E-04
  1.396820286215E-04  1.226011116931E-04  1.074699727589E-04  9.408312705959E-05
  8.225479327067E-05  7.181720799908E-05  6.261906564814E-05  5.452407575601E-05
  4.740963033912E-05  4.116557417429E-05  3.569307133322E-05  3.090356164283E-05
  2.671780108575E-05  2.306498047876E-05  1.988191707439E-05  1.711231402353E-05
  1.470608291618E-05  1.261872488364E-05  1.081076600048E-05  9.247242968350E-06
  7.897235297118E-06  6.733440422707E-06  5.731788415396E-06  4.871093137898E-06
  4.132736909430E-06  3.500385920577E-06  2.959733824125E-06  2.498271099493E-06
  2.105077952957E-06  1.770638672823E-06  1.486675507983E-06  1.246000280249E-06
  1.042382075393E-06  8.704294852597E-07  7.254859936168E-07  6.035372118993E-07
  5.011287776885E-07  4.152938289267E-07  3.434890606455E-07  2.835384585899E-07
  2.335838857645E-07  1.920417738340E-07  1.575652417058E-07  1.290110287535E-07
  1.054106902426E-07  8.594555784776E-08  6.992501895556E-08  5.676771497336E-08
  4.598530137390E-08  3.716845093400E-08  2.997481682656E-08  2.411870413254E-08
  1.936222718686E-08  1.550775618492E-08  1.239147987074E-08  9.877932111789E-09
  7.855348937077E-09  6.231739363067E-09  4.931568233535E-09  3.892962523142E-09
  3.065364256551E-09  2.407563522584E-09  1.886054152297E-09  1.473662607363E-09
  1.148407607256E-09  8.925541174971E-10  6.918306246958E-10  5.347832265864E-10
  4.122440480531E-10  3.168949306465E-10  2.429102996983E-10  1.856656493778E-10
  1.415002552619E-10  1.075245737868E-10  8.146436062921E-11  6.153487308981E-11
  4.633964799851E-11  3.478929558642E-11  2.603654673722E-11  1.942445820106E-11
  1.444523692449E-11  1.070758102320E-11  7.911020288846E-12  5.825415298672E-12
  2.892415531215E-12  0.000000000000E+00  0.000000000000E+00  0.000000000000E+00
  0.000000000000E+00  0.000000000000E+00  0.000000000000E+00  0.000000000000E+00
  0.000000000000E+00  0.000000000000E+00  0.000000000000E+00  0.000000000000E+00
  0.000000000000E+00  0.000000000000E+00  0.000000000000E+00  0.000000000000E+00
  0.000000000000E+00  0.000000000000E+00  0.000000000000E+00  0.000000000000E+00
  0.000000000000E+00  0.000000000000E+00  0.000000000000E+00  0.000000000000E+00
  0.000000000000E+00  0.000000000000E+00  0.000000000000E+00  0.000000000000E+00
  0.000000000000E+00  0.000000000000E+00  0.000000000000E+00  0.000000000000E+00
  0.000000000000E+00  0.000000000000E+00  0.000000000000E+00  0.000000000000E+00
  0.000000000000E+00  0.000000000000E+00  0.000000000000E+00  0.000000000000E+00
  0.000000000000E+00  0.000000000000E+00  0.000000000000E+00  0.000000000000E+00
  0.000000000000E+00  0.000000000000E+00  0.000000000000E+00  0.000000000000E+00
  0.000000000000E+00  0.000000000000E+00  0.000000000000E+00  0.000000000000E+00
  0.000000000000E+00  0.000000000000E+00  0.000000000000E+00  0.000000000000E+00
  0.000000000000E+00  0.000000000000E+00  0.000000000000E+00  0.000000000000E+00
  0.000000000000E+00  0.000000000000E+00  0.000000000000E+00  0.000000000000E+00
  0.000000000000E+00  0.000000000000E+00  0.000000000000E+00  0.000000000000E+00
  0.000000000000E+00  0.000000000000E+00  0.000000000000E+00  0.000000000000E+00
  0.000000000000E+00  0.000000000000E+00  0.000000000000E+00  0.000000000000E+00
  0.000000000000E+00  0.000000000000E+00  0.000000000000E+00  0.000000000000E+00
  0.000000000000E+00  0.000000000000E+00  0.000000000000E+00  0.000000000000E+00
  0.000000000000E+00  0.000000000000E+00  0.000000000000E+00  0.000000000000E+00
  0.000000000000E+00  0.000000000000E+00  0.000000000000E+00  0.000000000000E+00
  0.000000000000E+00
</data>
</radfunc>
</valence-charge>
<pseudocore-charge matching-radius="0.382679023963"
 number-of-continuous-derivatives="4">
<annotation model-charge-form="Teter function with specified parameters" />
<radfunc>
<data npts="290">
  4.325704584151E+01  4.324651683638E+01  4.321505265714E+01  4.316259480232E+01
  4.308973350088E+01  4.299405789330E+01  4.287233316435E+01  4.273324006654E+01
  4.256092748789E+01  4.237517120061E+01  4.216646893979E+01  4.194043594945E+01
  4.166838862908E+01  4.138557632065E+01  4.110439017521E+01  4.078215379687E+01
  4.041326604345E+01  4.006574360442E+01  3.967754487990E+01  3.924438325119E+01
  3.876164733351E+01  3.833646566065E+01  3.787375388860E+01  3.737074978021E+01
  3.682460328323E+01  3.623240101143E+01  3.559119822715E+01  3.507637203097E+01
  3.453111183420E+01  3.395423193199E+01  3.334459637958E+01  3.270113797923E+01
  3.202287981260E+01  3.130895945000E+01  3.055865593021E+01  2.977141955300E+01
  2.894690445694E+01  2.808500386603E+01  2.748970512357E+01  2.687798648876E+01
  2.625004271800E+01  2.560614200473E+01  2.494663154747E+01  2.427194310884E+01
  2.358259849799E+01  2.287921489797E+01  2.216250994861E+01  2.143330648369E+01
  2.069253680921E+01  1.994124639785E+01  1.918059686267E+01  1.841186806235E+01
  1.763645917996E+01  1.685588860931E+01  1.607179247612E+01  1.528592161852E+01
  1.450013685141E+01  1.371640234416E+01  1.293677695126E+01  1.216340335216E+01
  1.139849488027E+01  1.064431995278E+01  9.903184054080E+00  9.177409275342E+00
  8.469311473724E+00  7.781175184404E+00  7.115226498993E+00  6.791245109586E+00
  6.473604212629E+00  6.162552563524E+00  5.858329638298E+00  5.561164653627E+00
  5.271275588292E+00  4.988868211791E+00  4.714135126180E+00  4.447254827601E+00
  4.188390794258E+00  3.937690607922E+00  3.695285116265E+00  3.461287643576E+00
  3.235793257510E+00  3.018878099662E+00  2.810598787737E+00  2.610991897052E+00
  2.420073528952E+00  2.237838973501E+00  2.064262473443E+00  1.899297096055E+00
  1.742874718888E+00  1.594906134810E+00  1.455281280946E+00  1.323869595242E+00
  1.200520503384E+00  1.085064037677E+00  9.773115882543E-01  8.770567857434E-01
  7.840765129905E-01  6.981320420552E-01  6.189702910956E-01  5.463251941777E-01
  4.799191754316E-01  4.194647173602E-01  3.646660115153E-01  3.152206782253E-01
  2.708215406077E-01  2.311584367680E-01  1.959200529061E-01  1.647957590545E-01
  1.374774283883E-01  1.136612205212E-01  9.304930894282E-02  7.535153281346E-02
  6.028695370819E-02  4.758529863835E-02  3.698827176409E-02  2.825071866513E-02
  2.114162884933E-02  1.544496433755E-02  1.096030464806E-02  7.503301280076E-03
  4.905937822409E-03  3.016595035869E-03  1.699923614572E-03  8.365307494557E-04
  3.224900180381E-04  6.868742199923E-05  1.949938960475E-08  5.446226040458E-05
  1.820321456881E-04  3.436621996433E-04  5.100181120283E-04  6.602796446054E-04
  7.809131762352E-04  8.644606383077E-04  9.083689626141E-04  9.138823389266E-04
  8.850171177869E-04  8.276361589191E-04  7.486359058617E-04  6.552555746993E-04
  5.545137113218E-04  4.527731455735E-04  3.554312106811E-04  2.667281650527E-04
  1.896632100711E-04  1.260044895155E-04  7.637711185092E-05  4.041165655305E-05
  1.693487633880E-05  4.184415150835E-06  3.030990796729E-08  2.187770236927E-06
  8.408128780841E-06  1.663777980450E-05  2.513819779388E-05  3.256355003567E-05
  3.799577667761E-05  4.094010061865E-05  4.128655752279E-05  3.924514485668E-05
  3.526346413601E-05  2.993621296164E-05  2.391557397449E-05  1.783050973042E-05
  1.222132729618E-05  7.493795086302E-06  3.894783461810E-06  1.509083585341E-06
  2.749563480253E-07  1.427057524932E-08  4.719583806876E-07  1.359036000075E-06
  2.393630196842E-06  3.335258905794E-06  4.008917049062E-06  4.317136290541E-06
  4.239908570336E-06  3.823966964709E-06  3.164202804320E-06  2.380810218318E-06
  1.596000811252E-06  9.138143637603E-07  4.057401014673E-07  1.037021693601E-07
  6.471261996546E-10  0.000000000000E+00  0.000000000000E+00  0.000000000000E+00
  0.000000000000E+00  0.000000000000E+00  0.000000000000E+00  0.000000000000E+00
  0.000000000000E+00  0.000000000000E+00  0.000000000000E+00  0.000000000000E+00
  0.000000000000E+00  0.000000000000E+00  0.000000000000E+00  0.000000000000E+00
  0.000000000000E+00  0.000000000000E+00  0.000000000000E+00  0.000000000000E+00
  0.000000000000E+00  0.000000000000E+00  0.000000000000E+00  0.000000000000E+00
  0.000000000000E+00  0.000000000000E+00  0.000000000000E+00  0.000000000000E+00
  0.000000000000E+00  0.000000000000E+00  0.000000000000E+00  0.000000000000E+00
  0.000000000000E+00  0.000000000000E+00  0.000000000000E+00  0.000000000000E+00
  0.000000000000E+00  0.000000000000E+00  0.000000000000E+00  0.000000000000E+00
  0.000000000000E+00  0.000000000000E+00  0.000000000000E+00  0.000000000000E+00
  0.000000000000E+00  0.000000000000E+00  0.000000000000E+00  0.000000000000E+00
  0.000000000000E+00  0.000000000000E+00  0.000000000000E+00  0.000000000000E+00
  0.000000000000E+00  0.000000000000E+00  0.000000000000E+00  0.000000000000E+00
  0.000000000000E+00  0.000000000000E+00  0.000000000000E+00  0.000000000000E+00
  0.000000000000E+00  0.000000000000E+00  0.000000000000E+00  0.000000000000E+00
  0.000000000000E+00  0.000000000000E+00  0.000000000000E+00  0.000000000000E+00
  0.000000000000E+00  0.000000000000E+00  0.000000000000E+00  0.000000000000E+00
  0.000000000000E+00  0.000000000000E+00  0.000000000000E+00  0.000000000000E+00
  0.000000000000E+00  0.000000000000E+00  0.000000000000E+00  0.000000000000E+00
  0.000000000000E+00  0.000000000000E+00  0.000000000000E+00  0.000000000000E+00
  0.000000000000E+00  0.000000000000E+00  0.000000000000E+00  0.000000000000E+00
  0.000000000000E+00  0.000000000000E+00  0.000000000000E+00  0.000000000000E+00
  0.000000000000E+00  0.000000000000E+00  0.000000000000E+00  0.000000000000E+00
  0.000000000000E+00  0.000000000000E+00  0.000000000000E+00  0.000000000000E+00
  0.000000000000E+00  0.000000000000E+00  0.000000000000E+00  0.000000000000E+00
  0.000000000000E+00  0.000000000000E+00
</data>
</radfunc>
</pseudocore-charge>
<semilocal-potentials set="lj">
<slps n="2" l="s" j="0.5" rc="1.26149608774" eref="-0.874925562444">
<radfunc>
<data npts="290">
 -3.787345383966E+00 -3.787883621546E+00 -3.789492836372E+00 -3.792178685248E+00
 -3.795915284243E+00 -3.800832635668E+00 -3.807106430282E+00 -3.814299524309E+00
 -3.823246149548E+00 -3.832934839091E+00 -3.843874756787E+00 -3.855787932852E+00
 -3.870215466931E+00 -3.885316902026E+00 -3.900435359820E+00 -3.917888016989E+00
 -3.938033621119E+00 -3.957174494584E+00 -3.978741372863E+00 -4.003037200351E+00
 -4.030400451469E+00 -4.054751694507E+00 -4.081518958376E+00 -4.110932592325E+00
 -4.143241857304E+00 -4.178715574210E+00 -4.217642515541E+00 -4.249288897924E+00
 -4.283188516501E+00 -4.319484872543E+00 -4.358327095435E+00 -4.399869435137E+00
 -4.444270571539E+00 -4.491692708997E+00 -4.542300420637E+00 -4.596259203130E+00
 -4.653733698782E+00 -4.714885537860E+00 -4.757773770731E+00 -4.802410134107E+00
 -4.848836694050E+00 -4.897092837538E+00 -4.947214704961E+00 -4.999234565118E+00
 -5.053180129527E+00 -5.109073803070E+00 -5.166931868326E+00 -5.226763601351E+00
 -5.288570317357E+00 -5.352344345449E+00 -5.418067932678E+00 -5.485712079002E+00
 -5.555235306278E+00 -5.626582366707E+00 -5.699682898523E+00 -5.774450040155E+00
 -5.850779018063E+00 -5.928545728595E+00 -6.007605340593E+00 -6.087790953404E+00
 -6.168912354791E+00 -6.250754935035E+00 -6.333078827492E+00 -6.415618361348E+00
 -6.498081928403E+00 -6.580152380018E+00 -6.661488079128E+00 -6.701767371477E+00
 -6.741724730197E+00 -6.781311522545E+00 -6.820478089736E+00 -6.859173883123E+00
 -6.897347614291E+00 -6.934947417847E+00 -6.971921025087E+00 -7.008215946210E+00
 -7.043779658156E+00 -7.078559794577E+00 -7.112504334078E+00 -7.145561782470E+00
 -7.177681344724E+00 -7.208813082324E+00 -7.238908052152E+00 -7.267918423633E+00
 -7.295797571777E+00 -7.322500144958E+00 -7.347982107597E+00 -7.372200759385E+00
 -7.395114734150E+00 -7.416683982815E+00 -7.436869745942E+00 -7.455634522162E+00
 -7.472942038890E+00 -7.488757231703E+00 -7.503046237961E+00 -7.515776408731E+00
 -7.526916341971E+00 -7.536435937727E+00 -7.544306474059E+00 -7.550500700593E+00
 -7.554992944582E+00 -7.557759222774E+00 -7.558777351139E+00 -7.558027043579E+00
 -7.555489990380E+00 -7.551149907106E+00 -7.544992545170E+00 -7.537005656191E+00
 -7.527178903558E+00 -7.515503716355E+00 -7.501973082813E+00 -7.486581282812E+00
 -7.469323561485E+00 -7.450195748704E+00 -7.429193831930E+00 -7.406313492656E+00
 -7.381549619176E+00 -7.354895810771E+00 -7.326343890420E+00 -7.295883444782E+00
 -7.263501411527E+00 -7.229181734962E+00 -7.192905111473E+00 -7.154648846471E+00
 -7.114386844444E+00 -7.072089753299E+00 -7.027725283476E+00 -6.981258721321E+00
 -6.932653654848E+00 -6.881872928222E+00 -6.828879839004E+00 -6.773639589235E+00
 -6.716120997719E+00 -6.656298476208E+00 -6.594154266506E+00 -6.529680928593E+00
 -6.462884061713E+00 -6.393785230798E+00 -6.322425059694E+00 -6.248866440309E+00
 -6.173197793325E+00 -6.095536301495E+00 -6.016031021294E+00 -5.934865763135E+00
 -5.852261615180E+00 -5.768478971676E+00 -5.683818914788E+00 -5.598623790024E+00
 -5.513276811081E+00 -5.428200531450E+00 -5.343854029098E+00 -5.260728668336E+00
 -5.179342330989E+00 -5.100232048223E+00 -5.023945015489E+00 -4.951028057908E+00
 -4.882015385145E+00 -4.817415039503E+00 -4.757699799654E+00 -4.700953827642E+00