<?xml version="1.0" encoding="UTF-8" ?>
<psml version="1.1" energy_unit="hartree" length_unit="bohr"
 uuid="efad8f20-539d-11e8-7e65-9b52deebbc28"
 xmlns="http://esl.cecam.org/PSML/ns/1.1">
<provenance creator="ONCVPSP-3.3.0+psml-3.3.0-73 (fully-relativistic)"
 date="2018-05-09">
<annotation action="semilocal-pseudopotential-generation"
 action-cont="projectors-generation" />
<input-file name="oncvpsp-input">
<![CDATA[# atsym z nc nv iexc psfile
O 8 1 2 -116133 upf
# n l f
1 0 2.0
2 0 2.0
2 1 4.0
# lmax
2
# l rc ep ncon nbas qcut
0 1.35 0.0 4 8 8.4
1 1.45 0.0 4 8 9.3
2 1.25 0.1 4 8 6.0
# lloc lpopt rc5 dvloc0
4 5 1.2 0.0
# l nproj debl
0 2 1.0
1 2 1.0
2 1 1.0
# icmod fcfact
3 4 1.5
# epsh1 epsh2 depsh
-12.0 12.0 0.02
# rlmax drl
6.0 0.01
 0
]]>
</input-file>
</provenance>
<pseudo-atom-spec atomic-label="O" atomic-number="8" z-pseudo="6"
 flavor="Hamann&apos;s oncvpsp" relativity="dirac" spin-dft="no"
 core-corrections="yes">
<annotation pseudo-energy="-15.7108627040" />
<exchange-correlation>
<annotation oncvpsp-xc-code="-116133" oncvpsp-xc-type="libxc-interface" />
<libxc-info number-of-functionals="2">
<functional name="Perdew, Burke &amp; Ernzerhof SOL (GGA)" type="exchange"
 id="116" />
<functional name="Perdew, Burke &amp; Ernzerhof SOL (GGA)" type="correlation"
 id="133" />
</libxc-info>
</exchange-correlation>
<valence-configuration total-valence-charge="6">
<shell n="2" l="s" occupation="2" />
<shell n="2" l="p" occupation="4" />
</valence-configuration>
</pseudo-atom-spec>
<grid npts="457">
<annotation type="sampled from oncvpsp log grid"
 recipe="r(i:1..N) = r1*exp(a*(i-1)) + r=0; resampled"
 recipe-cont="r1: scale; a: step" scale="0.625000000000E-04"
 step="0.119285708653E-01" delta="0.500000000000E-02" rmax="44.1243818316" />
<grid-data>
  0.000000000000E+00  5.038585340028E-03  1.006417880273E-02  1.509787304249E-02
  2.010240735005E-02  2.521609353432E-02  3.051869836261E-02  3.563794632140E-02
  4.112243467717E-02  4.633230903787E-02  5.158323284976E-02  5.674827400167E-02
  6.243049193037E-02  6.786726449336E-02  7.290266753181E-02  7.831167165686E-02
  8.412199615352E-02  8.929191396799E-02  9.477956140646E-02  1.006044653004E-01
  1.067873525493E-01  1.120061500728E-01  1.174799950991E-01  1.232213520374E-01
  1.292432944444E-01  1.355595347938E-01  1.421844557004E-01  1.473647654853E-01
  1.527338132677E-01  1.582984754767E-01  1.640658790751E-01  1.700434106874E-01
  1.762387260605E-01  1.826597598689E-01  1.893147358765E-01  1.962121774698E-01
  2.033609185741E-01  2.107701149672E-01  2.158589486230E-01  2.210706470785E-01
  2.264081767816E-01  2.318745758018E-01  2.374729555600E-01  2.432065025990E-01
  2.490784803978E-01  2.550922312285E-01  2.612511780593E-01  2.675588265023E-01
  2.740187668094E-01  2.806346759152E-01  2.874103195305E-01  2.943495542853E-01
  3.014563299240E-01  3.087346915536E-01  3.161887819465E-01  3.238228438978E-01
  3.316412226409E-01  3.396483683203E-01  3.478488385251E-01  3.562473008824E-01
  3.648485357149E-01  3.736574387612E-01  3.826790239627E-01  3.919184263172E-01
  4.013809048022E-01  4.110718453678E-01  4.209967640023E-01  4.260487251704E-01
  4.311613098724E-01  4.363352455909E-01  4.415712685380E-01  4.468701237604E-01
  4.522325652455E-01  4.576593560285E-01  4.631512683008E-01  4.687090835204E-01
  4.743335925227E-01  4.800255956330E-01  4.857859027806E-01  4.916153336139E-01
  4.975147176173E-01  5.034848942287E-01  5.095267129594E-01  5.156410335150E-01
  5.218287259171E-01  5.280906706281E-01  5.344277586757E-01  5.408408917798E-01
  5.473309824811E-01  5.538989542709E-01  5.605457417222E-01  5.672722906228E-01
  5.740795581103E-01  5.809685128076E-01  5.879401349613E-01  5.949954165809E-01
  6.021353615798E-01  6.093609859188E-01  6.166733177498E-01  6.240733975628E-01
  6.315622783336E-01  6.391410256736E-01  6.468107179816E-01  6.545724465974E-01
  6.624273159566E-01  6.703764437481E-01  6.784209610731E-01  6.865620126059E-01
  6.948007567572E-01  7.031383658383E-01  7.115760262283E-01  7.201149385431E-01
  7.287563178056E-01  7.375013936193E-01  7.463514103427E-01  7.553076272668E-01
  7.643713187940E-01  7.735437746195E-01  7.828262999150E-01  7.922202155140E-01
  8.017268581001E-01  8.113475803973E-01  8.210837513621E-01  8.309367563784E-01
  8.409079974550E-01  8.509988934244E-01  8.612108801455E-01  8.715454107073E-01
  8.820039556358E-01  8.925880031034E-01  9.032990591406E-01  9.141386478503E-01
  9.251083116245E-01  9.362096113640E-01  9.474441267004E-01  9.588134562208E-01
  9.703192176954E-01  9.819630483078E-01  9.937466048875E-01  1.005671564146E+00
  1.017739622916E+00  1.029952498391E+00  1.042311928372E+00  1.054819671512E+00
  1.067477507570E+00  1.080287237661E+00  1.093250684513E+00  1.106369692727E+00
  1.119646129040E+00  1.133081882588E+00  1.146678865179E+00  1.160439011562E+00
  1.174364279700E+00  1.188456651057E+00  1.202718130869E+00  1.217150748440E+00
  1.231756557421E+00  1.246537636110E+00  1.261496087743E+00  1.276634040796E+00
  1.291953649286E+00  1.307457093077E+00  1.323146578194E+00  1.339024337133E+00
  1.355092629178E+00  1.371353740728E+00  1.387809985617E+00  1.404463705444E+00
  1.421317269910E+00  1.438373077149E+00  1.455633554074E+00  1.473101156723E+00
  1.490778370604E+00  1.508667711051E+00  1.526771723584E+00  1.545092984267E+00
  1.563634100078E+00  1.582397709279E+00  1.601386481790E+00  1.620603119572E+00
  1.640050357007E+00  1.659730961291E+00  1.679647732826E+00  1.699803505620E+00
  1.720201147688E+00  1.740843561460E+00  1.761733684197E+00  1.782874488408E+00
  1.804268982269E+00  1.825920210056E+00  1.847831252577E+00  1.870005227608E+00
  1.892445290339E+00  1.915154633823E+00  1.938136489429E+00  1.961394127302E+00
  1.984930856830E+00  2.008750027112E+00  2.032855027437E+00  2.057249287766E+00
  2.081936279219E+00  2.106919514570E+00  2.132202548745E+00  2.157788979330E+00
  2.183682447082E+00  2.209886636447E+00  2.236405276084E+00  2.263242139397E+00
  2.290401045070E+00  2.317885857611E+00  2.345700487902E+00  2.373848893757E+00
  2.402335080482E+00  2.431163101448E+00  2.460337058665E+00  2.489861103369E+00
  2.519739436609E+00  2.549976309849E+00  2.580576025567E+00  2.611542937874E+00
  2.642881453128E+00  2.674596030566E+00  2.706691182933E+00  2.739171477128E+00
  2.772041534853E+00  2.805306033271E+00  2.838969705671E+00  2.873037342139E+00
  2.907513790244E+00  2.942403955727E+00  2.977712803196E+00  3.013445356834E+00
  3.049606701116E+00  3.086201981530E+00  3.123236405308E+00  3.160715242172E+00
  3.198643825078E+00  3.237027550979E+00  3.275871881591E+00  3.315182344170E+00
  3.354964532300E+00  3.395224106687E+00  3.435966795968E+00  3.477198397519E+00
  3.518924778289E+00  3.561151875629E+00  3.603885698137E+00  3.647132326514E+00
  3.690897914432E+00  3.735188689406E+00  3.780010953678E+00  3.825371085123E+00
  3.871275538144E+00  3.917730844602E+00  3.964743614737E+00  4.012320538114E+00
  4.060468384571E+00  4.109194005186E+00  4.158504333248E+00  4.208406385247E+00
  4.258907261870E+00  4.310014149013E+00  4.361734318801E+00  4.414075130626E+00
  4.467044032194E+00  4.520648560580E+00  4.574896343307E+00  4.629795099427E+00
  4.685352640620E+00  4.741576872307E+00  4.798475794775E+00  4.856057504312E+00
  4.914330194364E+00  4.973302156697E+00  5.032981782577E+00  5.093377563968E+00
  5.154498094735E+00  5.216352071872E+00  5.278948296735E+00  5.342295676296E+00
  5.406403224411E+00  5.471280063104E+00  5.536935423861E+00  5.603378648948E+00
  5.670619192735E+00  5.738666623048E+00  5.807530622524E+00  5.877220989995E+00
  5.947747641875E+00  6.019120613577E+00  6.091350060940E+00  6.164446261671E+00
  6.238419616811E+00  6.313280652213E+00  6.389040020040E+00  6.465708500280E+00
  6.543297002283E+00  6.621816566311E+00  6.701278365107E+00  6.781693705488E+00
  6.863074029954E+00  6.945430918313E+00  7.028776089333E+00  7.113121402405E+00
  7.198478859234E+00  7.284860605545E+00  7.372278932811E+00  7.460746280005E+00
  7.550275235365E+00  7.640878538189E+00  7.732569080648E+00  7.825359909615E+00
  7.919264228531E+00  8.014295399273E+00  8.110466944064E+00  8.207792547393E+00
  8.306286057962E+00  8.405961490657E+00  8.506833028545E+00  8.608915024888E+00
  8.712222005187E+00  8.816768669249E+00  8.922569893280E+00  9.029640731999E+00
  9.137996420783E+00  9.247652377832E+00  9.358624206366E+00  9.470927696843E+00
  9.584578829205E+00  9.699593775155E+00  9.815988900457E+00  9.933780767263E+00
  1.005298613647E+01  1.017362197011E+01  1.029570543375E+01  1.041925389895E+01
  1.054428494574E+01  1.067081636509E+01  1.079886616147E+01  1.092845255541E+01
  1.105959398607E+01  1.119230911391E+01  1.132661682327E+01  1.146253622515E+01
  1.160008665985E+01  1.173928769977E+01  1.188015915217E+01  1.202272106200E+01
  1.216699371474E+01  1.231299763932E+01  1.246075361099E+01  1.261028265432E+01
  1.276160604617E+01  1.291474531873E+01  1.306972226255E+01  1.322655892970E+01
  1.338527763686E+01  1.354590096850E+01  1.370845178012E+01  1.387295320148E+01
  1.403942863990E+01  1.420790178358E+01  1.437839660498E+01  1.455093736424E+01
  1.472554861261E+01  1.490225519597E+01  1.508108225832E+01  1.526205524542E+01
  1.544519990836E+01  1.563054230726E+01  1.581810881495E+01  1.600792612073E+01
  1.620002123418E+01  1.639442148899E+01  1.659115454686E+01  1.679024840142E+01
  1.699173138224E+01  1.719563215882E+01  1.740197974473E+01  1.761080350166E+01
  1.782213314368E+01  1.803599874141E+01  1.825243072631E+01  1.847145989502E+01
  1.869311741376E+01  1.891743482273E+01  1.914444404060E+01  1.937417736909E+01
  1.960666749752E+01  1.984194750749E+01  2.008005087758E+01  2.032101148811E+01
  2.056486362596E+01  2.081164198948E+01  2.106138169335E+01  2.131411827367E+01
  2.156988769295E+01  2.182872634527E+01  2.209067106141E+01  2.235575911415E+01
  2.262402822352E+01  2.289551656220E+01  2.317026276095E+01  2.344830591408E+01
  2.372968558505E+01  2.401444181207E+01  2.430261511381E+01  2.459424649518E+01
  2.488937745312E+01  2.518804998256E+01  2.549030658235E+01  2.579619026134E+01
  2.610574454447E+01  2.641901347901E+01  2.673604164076E+01  2.705687414044E+01
  2.738155663013E+01  2.771013530969E+01  2.804265693341E+01  2.837916881661E+01
  2.871971884241E+01  2.906435546852E+01  2.941312773414E+01  2.976608526695E+01
  3.012327829015E+01  3.048475762963E+01  3.085057472119E+01  3.122078161784E+01
  3.159543099726E+01  3.197457616923E+01  3.235827108326E+01  3.274657033625E+01
  3.313952918029E+01  3.353720353045E+01  3.393964997282E+01  3.434692577249E+01
  3.475908888176E+01  3.517619794834E+01  3.559831232372E+01  3.602549207161E+01
  3.645779797647E+01  3.689529155219E+01  3.733803505081E+01  3.778609147142E+01
  3.823952456908E+01  3.869839886391E+01  3.916277965027E+01  3.963273300608E+01
  4.010832580215E+01  4.058962571178E+01  4.107670122032E+01  4.156962163496E+01
  4.206845709458E+01  4.257327857972E+01  4.308415792267E+01  4.360116781774E+01
  4.412438183156E+01
</grid-data>
</grid>
<valence-charge total-charge="6" is-unscreening-charge="yes"
 rescaled-to-z-pseudo="no">
<radfunc>
<data npts="457">
  3.667877227429E+00  3.670042359538E+00  3.676512688504E+00  3.687300882490E+00
  3.702286598181E+00  3.721967214132E+00  3.747010396940E+00  3.775632658645E+00
  3.811099269441E+00  3.849343485496E+00  3.892324880729E+00  3.938890886238E+00
  3.994957640264E+00  4.053267304628E+00  4.111266110623E+00  4.177761844607E+00
  4.253923020517E+00  4.325710393663E+00  4.405942541925E+00  4.495519560086E+00
  4.595412093023E+00  4.683449532149E+00  4.779314891827E+00  4.883594044209E+00
  4.996893009520E+00  5.119832860019E+00  5.253042924497E+00  5.360068862835E+00
  5.473487231592E+00  5.593552660536E+00  5.720509105554E+00  5.854585450275E+00
  5.995990429868E+00  6.144906814354E+00  6.301484790155E+00  6.465834482184E+00
  6.638017565319E+00  6.818037924303E+00  6.942376961173E+00  7.070134177069E+00
  7.201254166009E+00  7.335662581119E+00  7.473264379184E+00  7.613941993276E+00
  7.757553441582E+00  7.903930382861E+00  8.052876131581E+00  8.204163648711E+00
  8.357533527344E+00  8.512691995881E+00  8.669308965352E+00  8.827016151544E+00
  8.985405307027E+00  9.144026602730E+00  9.302387203484E+00  9.459950086767E+00
  9.616133158661E+00  9.770308725673E+00  9.921803385385E+00  1.006989840268E+01
  1.021383064143E+01  1.035279412357E+01  1.048594228851E+01  1.061239102488E+01
  1.073122254428E+01  1.084149016172E+01  1.094222403997E+01  1.098870806313E+01
  1.103243794458E+01  1.107328912243E+01  1.111113704274E+01  1.114585746127E+01
  1.117732676150E+01  1.120542228874E+01  1.123002269998E+01  1.125100832880E+01
  1.126826156484E+01  1.128166724697E+01  1.129111306921E+01  1.129648999843E+01
  1.129769270243E+01  1.129461998719E+01  1.128717524160E+01  1.127526688804E+01
  1.125880883689E+01  1.123772094289E+01  1.121192946134E+01  1.118136750143E+01
  1.114597547458E+01  1.110570153478E+01  1.106050200844E+01  1.101034181061E+01
  1.095519484465E+01  1.089504438228E+01  1.082988342074E+01  1.075971501393E+01
  1.068455257421E+01  1.060442014170E+01  1.051935261779E+01  1.042939595983E+01
  1.033460733389E+01  1.023505522275E+01  1.013081948637E+01  1.002199137235E+01
  9.908673474134E+00  9.790979634998E+00  9.669034796164E+00  9.542974787813E+00
  9.412946062095E+00  9.279105367722E+00  9.141619366175E+00  9.000664190027E+00
  8.856424944445E+00  8.709095153387E+00  8.558876152631E+00  8.405976432229E+00
  8.250610931587E+00  8.093000290852E+00  7.933370062798E+00  7.771949889912E+00
  7.608972651779E+00  7.444673588295E+00  7.279289404575E+00  7.113057363701E+00
  6.946214373695E+00  6.778996075232E+00  6.611635936699E+00  6.444364363186E+00
  6.277407825912E+00  6.110988018423E+00  5.945321045636E+00  5.780616651487E+00
  5.617077490522E+00  5.454898448327E+00  5.294266015139E+00  5.135357716430E+00
  4.978341603642E+00  4.823375807626E+00  4.670608156696E+00  4.520175860589E+00
  4.372205261009E+00  4.226811648847E+00  4.084099147676E+00  3.944160662600E+00
  3.807077893182E+00  3.672921408795E+00  3.541750784522E+00  3.413614795508E+00
  3.288551667537E+00  3.166589381572E+00  3.047746029888E+00  2.932030221470E+00
  2.819441534266E+00  2.709971011850E+00  2.603601701901E+00  2.500309233712E+00
  2.400062431592E+00  2.302823960599E+00  2.208551000421E+00  2.117195942450E+00
  2.028707104164E+00  1.943029453902E+00  1.860105337978E+00  1.779875200898E+00
  1.702278288323E+00  1.627253485344E+00  1.554740779690E+00  1.484682982432E+00
  1.417026282880E+00  1.351720224993E+00  1.288717901644E+00  1.227975542443E+00
  1.169450637221E+00  1.113099358415E+00  1.058876499595E+00  1.006735813378E+00
  9.566300876339E-01  9.085112870683E-01  8.623306901049E-01  8.180390208861E-01
  7.755865762079E-01  7.349233472477E-01  6.959991359663E-01  6.587636660932E-01
  6.231666886283E-01  5.891580818186E-01  5.566879455895E-01  5.257066904345E-01
  4.961651207860E-01  4.680145129097E-01  4.412066873837E-01  4.156940762392E-01
  3.914297848563E-01  3.683676487220E-01  3.464622851706E-01  3.256691402379E-01
  3.059445307726E-01  2.872456819545E-01  2.695307603806E-01  2.527589028835E-01
  2.368902412544E-01  2.218859230465E-01  2.077081286362E-01  1.943200847260E-01
  1.816860744683E-01  1.697714443938E-01  1.585426083258E-01  1.479670484598E-01
  1.380133137855E-01  1.286510160251E-01  1.198508232589E-01  1.115844514019E-01
  1.038246536958E-01  9.654520836742E-02  8.972090460919E-02  8.332752702180E-02
  7.734183866114E-02  7.174156282153E-02  6.650536368321E-02  6.161282594638E-02
  5.704443356861E-02  5.278154771711E-02  4.880638404266E-02  4.510198937704E-02
  4.165221795136E-02  3.844170722813E-02  3.545585343609E-02  3.268078689237E-02
  3.010334719281E-02  2.771105834764E-02  2.549210393528E-02  2.343530234409E-02
  2.153008216732E-02  1.976645781324E-02  1.813500538823E-02  1.662683890699E-02
  1.523358687975E-02  1.394736932264E-02  1.276077523315E-02  1.166684056872E-02
  1.065902676204E-02  9.731199803261E-03  8.877609914430E-03  8.092871838334E-03
  7.371945759438E-03  6.710118871182E-03  6.102987600134E-03  5.546440494036E-03
  5.036641777462E-03  4.570015575686E-03  4.143230804413E-03  3.753186720316E-03
  3.396999124820E-03  3.071987211293E-03  2.775661043758E-03  2.505709653418E-03
  2.259989737690E-03  2.036514945085E-03  1.833445728105E-03  1.649079745403E-03
  1.481842793705E-03  1.330280249461E-03  1.193048999816E-03  1.068909842303E-03
  9.567203326288E-04  8.554280600110E-04  7.640643297520E-04  6.817382330832E-04
  6.076310847281E-04  5.409912091554E-04  4.811290570638E-04  4.274126342693E-04
  3.792632258335E-04  3.361513989640E-04  2.975932689249E-04  2.631470129147E-04
  2.324096175759E-04  2.050138465085E-04  1.806254148441E-04  1.589403586070E-04
  1.396825872311E-04  1.226016082215E-04  1.074704135374E-04  9.408351783865E-05
  8.225513926581E-05  7.181751393468E-05  6.261933579798E-05  5.452431398100E-05
  4.740984012248E-05  4.116575865415E-05  3.569323333288E-05  3.090370369878E-05
  2.671792547355E-05  2.306508923695E-05  1.988201202651E-05  1.711239679840E-05
  1.470615496651E-05  1.261878750313E-05  1.081082033947E-05  9.247290048122E-06
  7.897276022956E-06  6.733475595812E-06  5.731818743721E-06  4.871119245984E-06
  4.132759347340E-06  3.500405171973E-06  2.959750313576E-06  2.498285199060E-06
  2.105089988133E-06  1.770648927867E-06  1.486684230710E-06  1.246007686319E-06
  1.042388352148E-06  8.704347951466E-07  7.254904772382E-07  6.035409907250E-07
  5.011319564626E-07  4.152964977992E-07  3.434912970570E-07  2.835403289341E-07
  2.335854468529E-07  1.920430741818E-07  1.575663226607E-07  1.290119254828E-07
  1.054114325957E-07  8.594617110778E-08  6.992552449261E-08  5.676813081199E-08
  4.598564268411E-08  3.716873045554E-08  2.997504523474E-08  2.411889035286E-08
  1.936237866505E-08  1.550787911810E-08  1.239157940494E-08  9.878012510268E-09
  7.855413723434E-09  6.231791442624E-09  4.931609996047E-09  3.892995929490E-09
  3.065390911739E-09  2.407584737043E-09  1.886070993248E-09  1.473675941733E-09
  1.148418137446E-09  8.925624111185E-10  6.918371392206E-10  5.347883297313E-10
  4.122480345880E-10  3.168980362176E-10  2.429127121639E-10  1.856675180790E-10
  1.415016985825E-10  1.075256853006E-10  8.146521408434E-11  6.153552643821E-11
  4.634014664353E-11  3.478967499279E-11  2.603683452207E-11  1.942467580402E-11
  1.444540093748E-11  1.070770424526E-11  7.911112563541E-12  5.825484170304E-12
  2.892547133220E-12  0.000000000000E+00  0.000000000000E+00  0.000000000000E+00
  0.000000000000E+00  0.000000000000E+00  0.000000000000E+00  0.000000000000E+00
  0.000000000000E+00  0.000000000000E+00  0.000000000000E+00  0.000000000000E+00
  0.000000000000E+00  0.000000000000E+00  0.000000000000E+00  0.000000000000E+00
  0.000000000000E+00  0.000000000000E+00  0.000000000000E+00  0.000000000000E+00
  0.000000000000E+00  0.000000000000E+00  0.000000000000E+00  0.000000000000E+00
  0.000000000000E+00  0.000000000000E+00  0.000000000000E+00  0.000000000000E+00
  0.000000000000E+00  0.000000000000E+00  0.000000000000E+00  0.000000000000E+00
  0.000000000000E+00  0.000000000000E+00  0.000000000000E+00  0.000000000000E+00
  0.000000000000E+00  0.000000000000E+00  0.000000000000E+00  0.000000000000E+00
  0.000000000000E+00  0.000000000000E+00  0.000000000000E+00  0.000000000000E+00
  0.000000000000E+00  0.000000000000E+00  0.000000000000E+00  0.000000000000E+00
  0.000000000000E+00  0.000000000000E+00  0.000000000000E+00  0.000000000000E+00
  0.000000000000E+00  0.000000000000E+00  0.000000000000E+00  0.000000000000E+00
  0.000000000000E+00  0.000000000000E+00  0.000000000000E+00  0.000000000000E+00
  0.000000000000E+00  0.000000000000E+00  0.000000000000E+00  0.000000000000E+00
  0.000000000000E+00  0.000000000000E+00  0.000000000000E+00  0.000000000000E+00
  0.000000000000E+00  0.000000000000E+00  0.000000000000E+00  0.000000000000E+00
  0.000000000000E+00  0.000000000000E+00  0.000000000000E+00  0.000000000000E+00
  0.000000000000E+00  0.000000000000E+00  0.000000000000E+00  0.000000000000E+00
  0.000000000000E+00  0.000000000000E+00  0.000000000000E+00  0.000000000000E+00
  0.000000000000E+00  0.000000000000E+00  0.000000000000E+00  0.000000000000E+00
  0.000000000000E+00  0.000000000000E+00  0.000000000000E+00  0.000000000000E+00
  0.000000000000E+00
</data>
</radfunc>
</valence-charge>
<pseudocore-charge matching-radius="0.382679023963"
 number-of-continuous-derivatives="4">
<annotation model-charge-form="Teter function with specified parameters" />
<radfunc>
<data npts="290">
  4.325704584151E+01  4.324651683638E+01  4.321505265714E+01  4.316259480232E+01
  4.308973350088E+01  4.299405789330E+01  4.287233316435E+01  4.273324006654E+01
  4.256092748789E+01  4.237517120061E+01  4.216646893979E+01  4.194043594945E+01
  4.166838862908E+01  4.138557632065E+01  4.110439017521E+01  4.078215379687E+01
  4.041326604345E+01  4.006574360442E+01  3.967754487990E+01  3.924438325119E+01
  3.876164733351E+01  3.833646566065E+01  3.787375388860E+01  3.737074978021E+01
  3.682460328323E+01  3.623240101143E+01  3.559119822715E+01  3.507637203097E+01
  3.453111183420E+01  3.395423193199E+01  3.334459637958E+01  3.270113797923E+01
  3.202287981260E+01  3.130895945000E+01  3.055865593021E+01  2.977141955300E+01
  2.894690445694E+01  2.808500386603E+01  2.748970512357E+01  2.687798648876E+01
  2.625004271800E+01  2.560614200473E+01  2.494663154747E+01  2.427194310884E+01
  2.358259849799E+01  2.287921489797E+01  2.216250994861E+01  2.143330648369E+01
  2.069253680921E+01  1.994124639785E+01  1.918059686267E+01  1.841186806235E+01
  1.763645917996E+01  1.685588860931E+01  1.607179247612E+01  1.528592161852E+01
  1.450013685141E+01  1.371640234416E+01  1.293677695126E+01  1.216340335216E+01
  1.139849488027E+01  1.064431995278E+01  9.903184054080E+00  9.177409275342E+00
  8.469311473724E+00  7.781175184404E+00  7.115226498993E+00  6.791245109586E+00
  6.473604212629E+00  6.162552563524E+00  5.858329638298E+00  5.561164653627E+00
  5.271275588292E+00  4.988868211791E+00  4.714135126180E+00  4.447254827601E+00
  4.188390794258E+00  3.937690607922E+00  3.695285116265E+00  3.461287643576E+00
  3.235793257510E+00  3.018878099662E+00  2.810598787737E+00  2.610991897052E+00
  2.420073528952E+00  2.237838973501E+00  2.064262473443E+00  1.899297096055E+00
  1.742874718888E+00  1.594906134810E+00  1.455281280946E+00  1.323869595242E+00
  1.200520503384E+00  1.085064037677E+00  9.773115882543E-01  8.770567857434E-01
  7.840765129905E-01  6.981320420552E-01  6.189702910956E-01  5.463251941777E-01
  4.799191754316E-01  4.194647173602E-01  3.646660115153E-01  3.152206782253E-01
  2.708215406077E-01  2.311584367680E-01  1.959200529061E-01  1.647957590545E-01
  1.374774283883E-01  1.136612205212E-01  9.304930894282E-02  7.535153281346E-02
  6.028695370819E-02  4.758529863835E-02  3.698827176409E-02  2.825071866513E-02
  2.114162884933E-02  1.544496433755E-02  1.096030464806E-02  7.503301280076E-03
  4.905937822409E-03  3.016595035869E-03  1.699923614572E-03  8.365307494557E-04
  3.224900180381E-04  6.868742199923E-05  1.949938960475E-08  5.446226040458E-05
  1.820321456881E-04  3.436621996433E-04  5.100181120283E-04  6.602796446054E-04
  7.809131762352E-04  8.644606383077E-04  9.083689626141E-04  9.138823389266E-04
  8.850171177869E-04  8.276361589191E-04  7.486359058617E-04  6.552555746993E-04
  5.545137113218E-04  4.527731455735E-04  3.554312106811E-04  2.667281650527E-04
  1.896632100711E-04  1.260044895155E-04  7.637711185092E-05  4.041165655305E-05
  1.693487633880E-05  4.184415150835E-06  3.030990796729E-08  2.187770236927E-06
  8.408128780841E-06  1.663777980450E-05  2.513819779388E-05  3.256355003567E-05
  3.799577667761E-05  4.094010061865E-05  4.128655752279E-05  3.924514485668E-05
  3.526346413601E-05  2.993621296164E-05  2.391557397449E-05  1.783050973042E-05
  1.222132729618E-05  7.493795086302E-06  3.894783461810E-06  1.509083585341E-06
  2.749563480253E-07  1.427057524932E-08  4.719583806876E-07  1.359036000075E-06
  2.393630196842E-06  3.335258905794E-06  4.008917049062E-06  4.317136290541E-06
  4.239908570336E-06  3.823966964709E-06  3.164202804320E-06  2.380810218318E-06
  1.596000811252E-06  9.138143637603E-07  4.057401014673E-07  1.037021693601E-07
  6.471261996546E-10  0.000000000000E+00  0.000000000000E+00  0.000000000000E+00
  0.000000000000E+00  0.000000000000E+00  0.000000000000E+00  0.000000000000E+00
  0.000000000000E+00  0.000000000000E+00  0.000000000000E+00  0.000000000000E+00
  0.000000000000E+00  0.000000000000E+00  0.000000000000E+00  0.000000000000E+00
  0.000000000000E+00  0.000000000000E+00  0.000000000000E+00  0.000000000000E+00
  0.000000000000E+00  0.000000000000E+00  0.000000000000E+00  0.000000000000E+00
  0.000000000000E+00  0.000000000000E+00  0.000000000000E+00  0.000000000000E+00
  0.000000000000E+00  0.000000000000E+00  0.000000000000E+00  0.000000000000E+00
  0.000000000000E+00  0.000000000000E+00  0.000000000000E+00  0.000000000000E+00
  0.000000000000E+00  0.000000000000E+00  0.000000000000E+00  0.000000000000E+00
  0.000000000000E+00  0.000000000000E+00  0.000000000000E+00  0.000000000000E+00
  0.000000000000E+00  0.000000000000E+00  0.000000000000E+00  0.000000000000E+00
  0.000000000000E+00  0.000000000000E+00  0.000000000000E+00  0.000000000000E+00
  0.000000000000E+00  0.000000000000E+00  0.000000000000E+00  0.000000000000E+00
  0.000000000000E+00  0.000000000000E+00  0.000000000000E+00  0.000000000000E+00
  0.000000000000E+00  0.000000000000E+00  0.000000000000E+00  0.000000000000E+00
  0.000000000000E+00  0.000000000000E+00  0.000000000000E+00  0.000000000000E+00
  0.000000000000E+00  0.000000000000E+00  0.000000000000E+00  0.000000000000E+00
  0.000000000000E+00  0.000000000000E+00  0.000000000000E+00  0.000000000000E+00
  0.000000000000E+00  0.000000000000E+00  0.000000000000E+00  0.000000000000E+00
  0.000000000000E+00  0.000000000000E+00  0.000000000000E+00  0.000000000000E+00
  0.000000000000E+00  0.000000000000E+00  0.000000000000E+00  0.000000000000E+00
  0.000000000000E+00  0.000000000000E+00  0.000000000000E+00  0.000000000000E+00
  0.000000000000E+00  0.000000000000E+00  0.000000000000E+00  0.000000000000E+00
  0.000000000000E+00  0.000000000000E+00  0.000000000000E+00  0.000000000000E+00
  0.000000000000E+00  0.000000000000E+00  0.000000000000E+00  0.000000000000E+00
  0.000000000000E+00  0.000000000000E+00
</data>
</radfunc>
</pseudocore-charge>
<semilocal-potentials set="lj">
<slps n="2" l="s" j="0.5" rc="1.35509262918" eref="-0.874925562444">
<radfunc>
<data npts="290">
 -4.827305716610E+00 -4.827676644272E+00 -4.828785695311E+00 -4.830637042910E+00
 -4.833213282554E+00 -4.836604678016E+00 -4.840933321631E+00 -4.845898583511E+00
 -4.852077669579E+00 -4.858773378035E+00 -4.866338738515E+00 -4.874582873615E+00
 -4.884574626710E+00 -4.895041600828E+00 -4.905528627940E+00 -4.917644475939E+00
 -4.931641903293E+00 -4.944952444223E+00 -4.959962186098E+00 -4.976885442109E+00
 -4.995961881572E+00 -5.012951951141E+00 -5.031641009696E+00 -5.052192365202E+00
 -5.074782717104E+00 -5.099602566752E+00 -5.126856432525E+00 -5.149025072660E+00
 -5.172782686981E+00 -5.198230622775E+00 -5.225474082884E+00 -5.254621745463E+00
 -5.285785256982E+00 -5.319078578085E+00 -5.354617159756E+00 -5.392516924804E+00
 -5.432893027183E+00 -5.475858358940E+00 -5.505994355454E+00 -5.537360457686E+00
 -5.569985977471E+00 -5.603898356400E+00 -5.639122780382E+00 -5.675681755148E+00
 -5.713594640079E+00 -5.752877137641E+00 -5.793540735791E+00 -5.835592100689E+00
 -5.879032417229E+00 -5.923856675093E+00 -5.970052898315E+00 -6.017601316936E+00
 -6.066473479827E+00 -6.116631308983E+00 -6.168026096728E+00 -6.220597449374E+00
 -6.274272183444E+00 -6.328963184387E+00 -6.384568242880E+00 -6.440968890865E+00
 -6.498029269158E+00 -6.555595070928E+00 -6.613492621507E+00 -6.671528174294E+00
 -6.729487524451E+00 -6.787136064028E+00 -6.844219419575E+00 -6.872464576194E+00
 -6.900464818911E+00 -6.928183541417E+00 -6.955583316973E+00 -6.982626019686E+00
 -7.009272959730E+00 -7.035485030941E+00 -7.061222868475E+00 -7.086447013384E+00
 -7.111118080169E+00 -7.135196922568E+00 -7.158644792161E+00 -7.181423483958E+00
 -7.203495462886E+00 -7.224823965284E+00 -7.245373070083E+00 -7.265107735380E+00
 -7.283993797595E+00 -7.301997932293E+00 -7.319087577981E+00 -7.335230826527E+00
 -7.350396286269E+00 -7.364552926007E+00 -7.377669909808E+00 -7.389716433752E+00
 -7.400661575951E+00 -7.410474171015E+00 -7.419122718825E+00 -7.426575335305E+00
 -7.432799750856E+00 -7.437763359055E+00 -7.441433315208E+00 -7.443776681750E+00
 -7.444760614785E+00 -7.444352584003E+00 -7.442520616595E+00 -7.439233554763E+00
 -7.434461315868E+00 -7.428175144326E+00 -7.420347844764E+00 -7.410953986882E+00
 -7.399970073694E+00 -7.387374666398E+00 -7.373148460975E+00 -7.357274313690E+00
 -7.339737214861E+00 -7.320524212566E+00 -7.299624290147E+00 -7.277028203475E+00
 -7.252728285708E+00 -7.226718228722E+00 -7.198992851374E+00 -7.169547865274E+00
 -7.138379648764E+00 -7.105485039414E+00 -7.070861154604E+00 -7.034505248702E+00
 -6.996414614266E+00 -6.956586533458E+00 -6.915018284769E+00 -6.871707209178E+00
 -6.826650839099E+00 -6.779847092895E+00 -6.731294537407E+00 -6.680992720765E+00
 -6.628942577697E+00 -6.575146909605E+00 -6.519610941672E+00 -6.462342959230E+00
 -6.403355025421E+00 -6.342663781747E+00 -6.280291332439E+00 -6.216266212506E+00
 -6.150624437900E+00 -6.083410634344E+00 -6.014679238994E+00 -5.944495766187E+00
 -5.872938125050E+00 -5.800097972685E+00 -5.726082081972E+00 -5.651013697777E+00
 -5.575033849609E+00 -5.498302582467E+00 -5.421000061141E+00 -5.343327496527E+00
 -5.265507836079E+00 -5.187786154600E+00 -5.110429676732E+00 -5.033727359269E+00
 -4.957988960528E+00 -4.883543525680E+00 -4.810737222381E+00 -4.739930471183E+00