<?xml version="1.0" encoding="UTF-8" ?>
<psml version="1.1" energy_unit="hartree" length_unit="bohr"
 uuid="fa4d78c0-53b4-11e8-5da8-c6bcfd6f2c95"
 xmlns="http://esl.cecam.org/PSML/ns/1.1">
<provenance creator="ONCVPSP-3.3.0+psml-3.3.0-73 (fully-relativistic)"
 date="2018-05-09">
<annotation action="semilocal-pseudopotential-generation"
 action-cont="projectors-generation" />
<input-file name="oncvpsp-input">
<![CDATA[# atsym z nc nv iexc psfile
Re 75 10 4 -116133 upf
# n l f
1 0 2.0
2 0 2.0
2 1 6.0
3 0 2.0
3 1 6.0
3 2 10.0
4 0 2.0
4 1 6.0
4 2 10.0
4 3 14.0
5 0 2.0
5 1 6.0
5 2 5.0
6 0 2.0
# lmax
3
# l rc ep ncon nbas qcut
0 1.6 0.0 4 8 7.4
1 1.6 0.0 4 8 7.8
2 1.6 0.0 4 9 7.4
3 2.0 0.15 4 8 6.0
# lloc lpopt rc5 dvloc0
4 5 1.6 0.0
# l nproj debl
0 2 1.0
1 2 2.0
2 2 1.8
3 2 2.9
# icmod fcfact rcfact
3 4.0 1.44
# epsh1 epsh2 depsh
-12.0 12.0 0.02
# rlmax drl
6.0 0.01
 0
]]>
</input-file>
</provenance>
<pseudo-atom-spec atomic-label="Re" atomic-number="75" z-pseudo="15"
 flavor="Hamann&apos;s oncvpsp" relativity="dirac" spin-dft="no"
 core-corrections="yes">
<annotation pseudo-energy="-80.0718565148" />
<exchange-correlation>
<annotation oncvpsp-xc-code="-116133" oncvpsp-xc-type="libxc-interface" />
<libxc-info number-of-functionals="2">
<functional name="Perdew, Burke &amp; Ernzerhof SOL (GGA)" type="exchange"
 id="116" />
<functional name="Perdew, Burke &amp; Ernzerhof SOL (GGA)" type="correlation"
 id="133" />
</libxc-info>
</exchange-correlation>
<valence-configuration total-valence-charge="15">
<shell n="5" l="s" occupation="2" />
<shell n="5" l="p" occupation="6" />
<shell n="5" l="d" occupation="5" />
<shell n="6" l="s" occupation="2" />
</valence-configuration>
</pseudo-atom-spec>
<grid npts="457">
<annotation type="sampled from oncvpsp log grid"
 recipe="r(i:1..N) = r1*exp(a*(i-1)) + r=0; resampled"
 recipe-cont="r1: scale; a: step" scale="0.666666666667E-05"
 step="0.119285708653E-01" delta="0.500000000000E-02" rmax="44.3244860336" />
<grid-data>
  0.000000000000E+00  5.001418319608E-03  1.010981988336E-02  1.516634194138E-02
  2.019357182683E-02  2.533044859306E-02  3.065710074992E-02  3.579956451334E-02
  4.081909588935E-02  4.599053971972E-02  5.120273020085E-02  5.632967153367E-02
  6.196997469948E-02  6.736664302225E-02  7.323328134463E-02  7.866681531939E-02
  8.450348965482E-02  8.969685306186E-02  9.520938699770E-02  1.010607068480E-01
  1.072716335089E-01  1.125140982946E-01  1.180127672242E-01  1.237801612332E-01
  1.298294131669E-01  1.361742976849E-01  1.428292626275E-01  1.480330651325E-01
  1.534264615625E-01  1.590163595311E-01  1.648099183218E-01  1.708145580576E-01
  1.770379692044E-01  1.834881224200E-01  1.901732787635E-01  1.971020002748E-01
  2.042831609411E-01  2.117259580618E-01  2.168378695933E-01  2.220732031167E-01
  2.274349385328E-01  2.329261276887E-01  2.385498961156E-01  2.443094448074E-01
  2.502080520429E-01  2.562490752514E-01  2.624359529243E-01  2.687722065717E-01
  2.752614427271E-01  2.819073550003E-01  2.887137261795E-01  2.956844303843E-01
  3.028234352715E-01  3.101348042927E-01  3.176226990076E-01  3.252913814524E-01
  3.331452165662E-01  3.411886746750E-01  3.494263340363E-01  3.578628834453E-01
  3.665031249032E-01  3.753519763509E-01  3.844144744679E-01  3.936957775394E-01
  4.032011683924E-01  4.129360574020E-01  4.229059855719E-01  4.279808573988E-01
  4.331166276876E-01  4.383140272198E-01  4.435737955465E-01  4.488966810930E-01
  4.542834412662E-01  4.597348425613E-01  4.652516606721E-01  4.708346806001E-01
  4.764846967673E-01  4.822025131286E-01  4.879889432861E-01  4.938448106055E-01
  4.997709483328E-01  5.057681997128E-01  5.118374181093E-01  5.179794671267E-01
  5.241952207322E-01  5.304855633810E-01  5.368513901415E-01  5.432936068232E-01
  5.498131301051E-01  5.564108876664E-01  5.630878183184E-01  5.698448721382E-01
  5.766830106038E-01  5.836032067311E-01  5.906064452119E-01  5.976937225544E-01
  6.048660472251E-01  6.121244397918E-01  6.194699330693E-01  6.269035722661E-01
  6.344264151333E-01  6.420395321149E-01  6.497440065003E-01  6.575409345783E-01
  6.654314257932E-01  6.734166029027E-01  6.814976021376E-01  6.896755733632E-01
  6.979516802436E-01  7.063271004065E-01  7.148030256114E-01  7.233806619187E-01
  7.320612298617E-01  7.408459646201E-01  7.497361161955E-01  7.587329495899E-01
  7.678377449849E-01  7.770517979248E-01  7.863764194999E-01  7.958129365339E-01
  8.053626917723E-01  8.150270440735E-01  8.248073686024E-01  8.347050570256E-01
  8.447215177099E-01  8.548581759225E-01  8.651164740335E-01  8.754978717219E-01
  8.860038461826E-01  8.966358923368E-01  9.073955230448E-01  9.182842693214E-01
  9.293036805532E-01  9.404553247199E-01  9.517407886165E-01  9.631616780799E-01
  9.747196182169E-01  9.864162536355E-01  9.982532486791E-01  1.010232287663E+00
  1.022355075115E+00  1.034623336017E+00  1.047038816049E+00  1.059603281841E+00
  1.072318521223E+00  1.085186343478E+00  1.098208579600E+00  1.111387082555E+00
  1.124723727546E+00  1.138220412276E+00  1.151879057224E+00  1.165701605910E+00
  1.179690025181E+00  1.193846305483E+00  1.208172461149E+00  1.222670530683E+00
  1.237342577051E+00  1.252190687976E+00  1.267216976231E+00  1.282423579946E+00
  1.297812662906E+00  1.313386414861E+00  1.329147051839E+00  1.345096816461E+00
  1.361237978258E+00  1.377572833998E+00  1.394103708005E+00  1.410832952502E+00
  1.427762947932E+00  1.444896103307E+00  1.462234856546E+00  1.479781674825E+00
  1.497539054923E+00  1.515509523582E+00  1.533695637865E+00  1.552099985519E+00
  1.570725185346E+00  1.589573887570E+00  1.608648774221E+00  1.627952559511E+00
  1.647487990225E+00  1.667257846108E+00  1.687264940261E+00  1.707512119544E+00
  1.728002264979E+00  1.748738292159E+00  1.769723151665E+00  1.790959829485E+00
  1.812451347438E+00  1.834200763608E+00  1.856211172771E+00  1.878485706844E+00
  1.901027535326E+00  1.923839865750E+00  1.946925944139E+00  1.970289055469E+00
  1.993932524135E+00  2.017859714424E+00  2.042074030997E+00  2.066578919369E+00
  2.091377866402E+00  2.116474400799E+00  2.141872093608E+00  2.167574558731E+00
  2.193585453436E+00  2.219908478877E+00  2.246547380624E+00  2.273505949191E+00
  2.300788020582E+00  2.328397476829E+00  2.356338246551E+00  2.384614305509E+00
  2.413229677175E+00  2.442188433301E+00  2.471494694501E+00  2.501152630835E+00
  2.531166462405E+00  2.561540459954E+00  2.592278945473E+00  2.623386292819E+00
  2.654866928333E+00  2.686725331473E+00  2.718966035451E+00  2.751593627876E+00
  2.784612751411E+00  2.818028104427E+00  2.851844441681E+00  2.886066574981E+00
  2.920699373881E+00  2.955747766367E+00  2.991216739564E+00  3.027111340438E+00
  3.063436676524E+00  3.100197916642E+00  3.137400291642E+00  3.175049095141E+00
  3.213149684283E+00  3.251707480494E+00  3.290727970260E+00  3.330216705903E+00
  3.370179306374E+00  3.410621458051E+00  3.451548915547E+00  3.492967502534E+00
  3.534883112564E+00  3.577301709915E+00  3.620229330434E+00  3.663672082399E+00
  3.707636147388E+00  3.752127781157E+00  3.797153314531E+00  3.842719154305E+00
  3.888831784157E+00  3.935497765566E+00  3.982723738753E+00  4.030516423618E+00
  4.078882620702E+00  4.127829212150E+00  4.177363162696E+00  4.227491520648E+00
  4.278221418896E+00  4.329560075923E+00  4.381514796834E+00  4.434092974396E+00
  4.487302090089E+00  4.541149715170E+00  4.595643511752E+00  4.650791233893E+00
  4.706600728699E+00  4.763079937444E+00  4.820236896693E+00  4.878079739454E+00
  4.936616696327E+00  4.995856096683E+00  5.055806369843E+00  5.116476046281E+00
  5.177873758837E+00  5.240008243943E+00  5.302888342870E+00  5.366523002984E+00
  5.430921279020E+00  5.496092334368E+00  5.562045442381E+00  5.628789987689E+00
  5.696335467542E+00  5.764691493152E+00  5.833867791070E+00  5.903874204563E+00
  5.974720695018E+00  6.046417343358E+00  6.118974351478E+00  6.192402043696E+00
  6.266710868220E+00  6.341911398639E+00  6.418014335423E+00  6.495030507448E+00
  6.572970873537E+00  6.651846524019E+00  6.731668682308E+00  6.812448706495E+00
  6.894198090973E+00  6.976928468065E+00  7.060651609682E+00  7.145379428998E+00
  7.231123982146E+00  7.317897469932E+00  7.405712239571E+00  7.494580786446E+00
  7.584515755883E+00  7.675529944954E+00  7.767636304293E+00  7.860847939945E+00
  7.955178115224E+00  8.050640252607E+00  8.147247935638E+00  8.245014910866E+00
  8.343955089796E+00  8.444082550873E+00  8.545411541484E+00  8.647956479982E+00
  8.751731957742E+00  8.856752741234E+00  8.963033774129E+00  9.070590179419E+00
  9.179437261572E+00  9.289590508711E+00  9.401065594815E+00  9.513878381953E+00
  9.628044922536E+00  9.743581461607E+00  9.860504439146E+00  9.978830492416E+00
  1.009857645832E+01  1.021975937582E+01  1.034239648833E+01  1.046650524619E+01
  1.059210330915E+01  1.071920854886E+01  1.084783905145E+01  1.097801312006E+01
  1.110974927750E+01  1.124306626883E+01  1.137798306406E+01  1.151451886083E+01
  1.165269308716E+01  1.179252540420E+01  1.193403570905E+01  1.207724413756E+01
  1.222217106721E+01  1.236883712002E+01  1.251726316546E+01  1.266747032345E+01
  1.281947996733E+01  1.297331372694E+01  1.312899349166E+01  1.328654141356E+01
  1.344597991052E+01  1.360733166945E+01  1.377061964948E+01  1.393586708527E+01
  1.410309749030E+01  1.427233466018E+01  1.444360267610E+01  1.461692590822E+01
  1.479232901912E+01  1.496983696734E+01  1.514947501095E+01  1.533126871108E+01
  1.551524393562E+01  1.570142686284E+01  1.588984398520E+01  1.608052211302E+01
  1.627348837838E+01  1.646877023892E+01  1.666639548179E+01  1.686639222757E+01
  1.706878893430E+01  1.727361440151E+01  1.748089777433E+01  1.769066854762E+01
  1.790295657019E+01  1.811779204903E+01  1.833520555362E+01  1.855522802026E+01
  1.877789075651E+01  1.900322544559E+01  1.923126415093E+01  1.946203932074E+01
  1.969558379259E+01  1.993193079810E+01  2.017111396768E+01  2.041316733529E+01
  2.065812534332E+01  2.090602284744E+01  2.115689512161E+01  2.141077786307E+01
  2.166770719742E+01  2.192771968379E+01  2.219085232000E+01  2.245714254784E+01
  2.272662825841E+01  2.299934779751E+01  2.327533997108E+01  2.355464405073E+01
  2.383729977934E+01  2.412334737670E+01  2.441282754522E+01  2.470578147576E+01
  2.500225085347E+01  2.530227786371E+01  2.560590519807E+01  2.591317606045E+01
  2.622413417318E+01  2.653882378325E+01  2.685728966865E+01  2.717957714468E+01
  2.750573207041E+01  2.783580085526E+01  2.816983046552E+01  2.850786843111E+01
  2.884996285228E+01  2.919616240651E+01  2.954651635539E+01  2.990107455165E+01
  3.025988744627E+01  3.062300609563E+01  3.099048216877E+01  3.136236795480E+01
  3.173871637026E+01  3.211958096670E+01  3.250501593830E+01  3.289507612956E+01
  3.328981704311E+01  3.368929484763E+01  3.409356638580E+01  3.450268918243E+01
  3.491672145262E+01  3.533572211005E+01  3.575975077537E+01  3.618886778468E+01
  3.662313419809E+01  3.706261180847E+01  3.750736315017E+01  3.795745150798E+01
  3.841294092607E+01  3.887389621718E+01  3.934038297179E+01  3.981246756745E+01
  4.029021717826E+01  4.077369978440E+01  4.126298418181E+01  4.175813999199E+01
  4.225923767190E+01  4.276634852396E+01  4.327954470625E+01  4.379889924272E+01
  4.432448603364E+01
</grid-data>
</grid>
<valence-charge total-charge="15" is-unscreening-charge="yes"
 rescaled-to-z-pseudo="no">
<radfunc>
<data npts="457">
  2.018695319238E+00  2.019527753856E+00  2.022096521730E+00  2.026349148385E+00
  2.032262944880E+00  2.040041066907E+00  2.049957656337E+00  2.061317790033E+00
  2.074097137785E+00  2.089008018468E+00  2.105825627687E+00  2.124117806781E+00
  2.146242417925E+00  2.169369648663E+00  2.196678214591E+00  2.223979355395E+00
  2.255451751708E+00  2.285318065235E+00  2.318932641196E+00  2.356760410708E+00
  2.399322375566E+00  2.437170312319E+00  2.478750365043E+00  2.524423461916E+00
  2.574583774940E+00  2.629661372853E+00  2.690124976843E+00  2.739312524509E+00
  2.792047257068E+00  2.848575355579E+00  2.909158363524E+00  2.974073816487E+00
  3.043615826604E+00  3.118095601603E+00  3.197841873776E+00  3.283201208779E+00
  3.374538157847E+00  3.472235209488E+00  3.541096850219E+00  3.613085478730E+00
  3.688327135135E+00  3.766950944593E+00  3.849088911085E+00  3.934875660150E+00
  4.024448123633E+00  4.117945158771E+00  4.215507093140E+00  4.317275186127E+00
  4.423390996706E+00  4.533995646324E+00  4.649228964760E+00  4.769228505776E+00
  4.894128418416E+00  5.024058158768E+00  5.159141026100E+00  5.299492506376E+00
  5.445218405434E+00  5.596412753521E+00  5.753155462554E+00  5.915509717476E+00
  6.083519083432E+00  6.257204311460E+00  6.436559826883E+00  6.621549886941E+00
  6.812104397468E+00  7.008114382767E+00  7.209427108515E+00  7.312011027190E+00
  7.415840864689E+00  7.520882845618E+00  7.627099424396E+00  7.734449096375E+00
  7.842886205271E+00  7.952360747377E+00  8.062818173079E+00  8.174199186280E+00
  8.286439542406E+00  8.399469845763E+00  8.513215347104E+00  8.627595742346E+00
  8.742524973505E+00  8.857911032979E+00  8.973655772470E+00  9.089654717913E+00
  9.205796891899E+00  9.321964645240E+00  9.438033499383E+00  9.553872001570E+00
  9.669341594729E+00  9.784296504216E+00  9.898583643664E+00  1.001204254231E+01
  1.012450529628E+01  1.023579654649E+01  1.034573348572E+01  1.045412589796E+01
  1.056077623252E+01  1.066547971626E+01  1.076802450664E+01  1.086819188882E+01
  1.096575651971E+01  1.106048672217E+01  1.115214483211E+01  1.124048760157E+01
  1.132526666040E+01  1.140622903927E+01  1.148311775621E+01  1.155567246902E+01
  1.162363019515E+01  1.168672610068E+01  1.174469435920E+01  1.179726908137E+01
  1.184418531489E+01  1.188518011428E+01  1.191999367932E+01  1.194837055969E+01
  1.197006092332E+01  1.198482188424E+01  1.199241888562E+01  1.199262713189E+01
  1.198523306347E+01  1.197003586627E+01  1.194684900687E+01  1.191550178364E+01
  1.187584088258E+01  1.182773192569E+01  1.177106099892E+01  1.170573614536E+01
  1.163168880890E+01  1.154887521260E+01  1.145727765555E+01  1.135690571148E+01
  1.124779731241E+01  1.113001970031E+01  1.100367023034E+01  1.086887700955E+01
  1.072579935598E+01  1.057462806394E+01  1.041558546303E+01  1.024892525994E+01
  1.007493215417E+01  9.893921221164E+00  9.706237058854E+00  9.512252696187E+00
  9.312368265270E+00  9.107009441518E+00  8.896625659220E+00  8.681688112729E+00
  8.462687556242E+00  8.240131917600E+00  8.014543743720E+00  7.786457497130E+00
  7.556416724484E+00  7.324971118916E+00  7.092673498638E+00  6.860076724291E+00
  6.627730577255E+00  6.396178620568E+00  6.165955063248E+00  5.937581647980E+00
  5.711564581250E+00  5.488391524461E+00  5.268528664275E+00  5.052417880754E+00
  4.840474032736E+00  4.633082381468E+00  4.430596175794E+00  4.233334425006E+00
  4.041579888807E+00  3.855577317312E+00  3.675531977373E+00  3.501608504371E+00
  3.333930120517E+00  3.172578261183E+00  3.017592649455E+00  2.868971855578E+00
  2.726674371962E+00  2.590620225882E+00  2.460693140856E+00  2.336744692641E+00
  2.218604641304E+00  2.106094502790E+00  1.999029560398E+00  1.897220104804E+00
  1.800473005462E+00  1.708593012046E+00  1.621383966685E+00  1.538649907243E+00
  1.460196064996E+00  1.385829759723E+00  1.315361195599E+00  1.248604161746E+00
  1.185376641710E+00  1.125501336405E+00  1.068806105354E+00  1.015124331177E+00
  9.642952124355E-01  9.161639899624E-01  8.705821118257E-01  8.274073420339E-01
  7.865038179998E-01  7.477420616705E-01  7.109989490950E-01  6.761576429478E-01
  6.431074925549E-01  6.117439054701E-01  5.819681945754E-01  5.536874045943E-01
  5.268141213473E-01  5.012662671064E-01  4.769668850515E-01  4.538439156108E-01
  4.318299672294E-01  4.108620838713E-01  3.908815113373E-01  3.718334642539E-01
  3.536668953771E-01  3.363342686501E-01  3.197913372583E-01  3.039969277449E-01
  2.889127310727E-01  2.745031013648E-01  2.607348629033E-01  2.475771258309E-01
  2.350011108796E-01  2.229799833329E-01  2.114886963330E-01  2.005038435526E-01
  1.900035211715E-01  1.799671990311E-01  1.703756007804E-01  1.612105927739E-01
  1.524550814445E-01  1.440929188336E-01  1.361088159379E-01  1.284882635071E-01
  1.212174599122E-01  1.142832456945E-01  1.076730443961E-01  1.013748092735E-01
  9.537697549682E-02  8.966841744131E-02  8.423841068760E-02  7.907659835566E-02
  7.417296141210E-02  6.951779260457E-02  6.510167369366E-02  6.091545567127E-02
  5.695024167336E-02  5.319737231533E-02  4.964841319880E-02  4.629514435336E-02
  4.312955143726E-02  4.014381843938E-02  3.733032177858E-02  3.468162561403E-02
  3.219047823379E-02  2.984980939593E-02  2.765272850660E-02  2.559252352743E-02
  2.366266051003E-02  2.185678365871E-02  2.016871582419E-02  1.859245933174E-02
  1.712219704713E-02  1.575229358419E-02  1.447729655890E-02  1.329193779702E-02
  1.219113440655E-02  1.116998963197E-02  1.022379341486E-02  9.348022594828E-03
  8.538340695551E-03  7.790597252491E-03  7.100826651198E-03  6.465246457814E-03
  5.880255235597E-03  5.342429852937E-03  4.848522298910E-03  4.395456031777E-03
  3.980321893741E-03  3.600373631654E-03  3.253023068226E-03  2.935834971618E-03
  2.646521673208E-03  2.382937483956E-03  2.143072959257E-03  1.925049060651E-03
  1.727111260416E-03  1.547623632098E-03  1.385062966491E-03  1.238012948780E-03
  1.105158428464E-03  9.852798095425E-04  8.772475842744E-04  7.800170298521E-04
  6.926230833067E-04  6.141754065404E-04  5.438536502499E-04  4.809029214495E-04
  4.246294578418E-04  3.743965104793E-04  3.296204321092E-04  2.897669681324E-04
  2.543477466719E-04  2.229169622225E-04  1.950682467212E-04  1.704317216035E-04
  1.486712240355E-04  1.294817003406E-04  1.125867596052E-04  9.773638049988E-05
  8.470476447003E-05  7.328832860957E-05  6.330383171302E-05  5.458662719514E-05
  4.698903676126E-05  4.037883889825E-05  3.463786643469E-05  2.966070758499E-05
  2.535350504838E-05  2.163284787997E-05  1.842475099090E-05  1.566371726889E-05
  1.329187744377E-05  1.125820295554E-05  9.517787218395E-06  8.031190813845E-06
  6.763846291339E-06  5.685518405732E-06  4.769815778287E-06  3.993750131095E-06
  3.337339413508E-06  2.783251312473E-06  2.316483815650E-06  1.924079675536E-06
  1.594871803434E-06  1.319256802583E-06  1.088994028908E-06  8.970277444708E-07
  7.373301015867E-07  6.047628638560E-07  4.949559330195E-07  4.042009069211E-07
  3.293580433019E-07  2.677751461775E-07  2.172170258204E-07  1.758043096639E-07
  1.419604996314E-07  1.143662814928E-07  9.192019391046E-08  7.370485904998E-08
  5.895806319843E-08  4.704805505179E-08  3.745250152278E-08  2.974060643849E-08
  2.355795672679E-08  1.861371402733E-08  1.466981751044E-08  1.153190645052E-08
  9.041709178490E-09  7.070678821595E-09  5.514686104254E-09  4.289605792649E-09
  3.327656459471E-09  2.574373446830E-09  1.986112515562E-09  1.527996967848E-09
  1.172234275167E-09  8.967396718794E-10  6.840140018123E-10  5.202315270248E-10
  3.945006008529E-10  2.982662301021E-10  2.248287453759E-10  1.689571900086E-10
  1.265797383468E-10  9.453656142365E-11  7.038315851666E-11  5.223434194345E-11
  3.864086512973E-11  2.849217716436E-11  2.094001958199E-11  1.533859495003E-11
  1.119786786572E-11  8.147237754116E-12  5.907375324419E-12  4.268462592695E-12
  3.073438443315E-12  2.205143216876E-12  1.576489674677E-12  1.122974614635E-12
  7.969942690605E-13  5.635445000583E-13  3.854632385037E-13  2.705880278265E-13
  1.892181265442E-13  8.930330508717E-14  6.150545862477E-14  4.218321060892E-14
  2.880870188318E-14  1.959042299555E-14  1.326409758679E-14  8.941344028162E-15
  6.000621814251E-15  4.008989646062E-15  2.666216602028E-15  1.765037919273E-15
  1.163018926276E-15  7.627274472283E-16  4.978256190703E-16  3.233594142853E-16
  2.090109304364E-16  1.344318657701E-16  8.603187729245E-17  5.477903954949E-17
  3.470090851894E-17  2.186814543458E-17  1.370883887325E-17  8.548297091426E-18
  5.301771852559E-18  3.270370036211E-18  2.006221073723E-18  1.223877558720E-18
  7.424126373357E-19  4.477870189944E-19  2.685261626836E-19  1.600886407409E-19
  9.487738638718E-20  5.589362817008E-20  3.272864460279E-20  1.904707214114E-20
  1.101617676785E-20  6.331456320364E-21  3.615876398614E-21  2.051764791464E-21
  1.156676703338E-21  6.477878359793E-22  3.603757055341E-22  1.991339060989E-22
  1.092864927178E-22  5.956391604180E-23  3.223737191807E-23  0.000000000000E+00
  0.000000000000E+00  0.000000000000E+00  0.000000000000E+00  0.000000000000E+00
  0.000000000000E+00  0.000000000000E+00  0.000000000000E+00  0.000000000000E+00
  0.000000000000E+00  0.000000000000E+00  0.000000000000E+00  0.000000000000E+00
  0.000000000000E+00
</data>
</radfunc>
</valence-charge>
<pseudocore-charge matching-radius="0.907395523045"
 number-of-continuous-derivatives="4">
<annotation model-charge-form="Teter function with specified parameters" />
<radfunc>
<data npts="290">
  4.816346246905E+01  4.816123305371E+01  4.815435364292E+01  4.814296552246E+01
  4.812713067181E+01  4.810630692431E+01  4.807976302667E+01  4.804936202901E+01
  4.801517176777E+01  4.797529033725E+01  4.793032396908E+01  4.788143275366E+01
  4.782232283803E+01  4.776056277578E+01  4.768767384394E+01  4.761484451758E+01
  4.753093657915E+01  4.745135824671E+01  4.736184746508E+01  4.726118583116E+01
  4.714801121059E+01  4.704744563641E+01  4.693704244064E+01  4.681586479228E+01
  4.668289200264E+01  4.653701315784E+01  4.637702052007E+01  4.624697910321E+01
  4.610766963524E+01  4.595846184499E+01  4.579868725246E+01  4.562763758564E+01
  4.544456325748E+01  4.524867193130E+01  4.503912720781E+01  4.481504747276E+01
  4.457550495034E+01  4.431952501460E+01  4.413923715787E+01  4.395087616383E+01
  4.375411831207E+01  4.354863069717E+01  4.333407137674E+01  4.311008957652E+01
  4.287632595911E+01  4.263241296299E+01  4.237797521933E+01  4.211263005435E+01
  4.183598808566E+01  4.154765392140E+01  4.124722697157E+01  4.093430238141E+01
  4.060847209716E+01  4.026932607506E+01  3.991645364459E+01  3.954944503763E+01
  3.916789309516E+01  3.877139516350E+01  3.835955519203E+01  3.793198604417E+01
  3.748831203329E+01  3.702817169457E+01  3.655122080319E+01  3.605713564821E+01
  3.554561657022E+01  3.501639176896E+01  3.446922138540E+01  3.418884144504E+01
  3.390390185964E+01  3.361438361598E+01  3.332027056344E+01  3.302154957331E+01
  3.271821070220E+01  3.241024735921E+01  3.209765647687E+01  3.178043868559E+01
  3.145859849149E+01  3.113214445731E+01  3.080108938623E+01  3.046545050828E+01
  3.012524966907E+01  2.978051352034E+01  2.943127371227E+01  2.907756708672E+01
  2.871943587129E+01  2.835692787350E+01  2.799009667467E+01  2.761900182277E+01
  2.724370902380E+01  2.686429033086E+01  2.648082433025E+01  2.609339632384E+01
  2.570209850690E+01  2.530703014040E+01  2.490829771704E+01  2.450601511983E+01
  2.410030377236E+01  2.369129277955E+01  2.327911905784E+01  2.286392745352E+01
  2.244587084811E+01  2.202511024937E+01  2.160181486669E+01  2.117616216942E+01
  2.074833792689E+01  2.031853622837E+01  1.988695948186E+01  1.945381838989E+01
  1.901933190101E+01  1.858372713533E+01  1.814723928260E+01  1.771011147136E+01
  1.727259460750E+01  1.683494718085E+01  1.639743503830E+01  1.596033112206E+01
  1.552391517167E+01  1.508847338850E+01  1.465429806161E+01  1.422168715384E+01
  1.379094384722E+01  1.336237604691E+01  1.293629584296E+01  1.251301892963E+01
  1.209286398177E+01  1.167615198851E+01  1.126320554425E+01  1.085434809770E+01
  1.044990315956E+01  1.005019347010E+01  9.655540128036E+00  9.266261682460E+00
  8.882673190168E+00  8.505085240794E+00  8.133802952862E+00  7.769124944129E+00
  7.411342280097E+00  7.060737405003E+00  6.717583060036E+00  6.382141194016E+00
  6.054661872194E+00  5.735382189273E+00  5.424525193215E+00  5.122298826755E+00
  4.828894893983E+00  4.544488059655E+00  4.269234889237E+00  4.003272937945E+00
  3.746719897218E+00  3.499672807252E+00  3.262207344238E+00  3.034377190981E+00
  2.816213499426E+00  2.607724453463E+00  2.408894940035E+00  2.219686336188E+00
  2.040036419140E+00  1.869859405809E+00  1.709046127436E+00  1.557464344048E+00
  1.414959202441E+00  1.281353840216E+00  1.156450137092E+00  1.040029613339E+00
  9.318544736288E-01  8.316687930285E-01  7.391998401463E-01  6.541595307126E-01
  5.762460030825E-01  5.051453053449E-01  4.405331819377E-01  3.820769459161E-01
  3.294374213533E-01  2.822709387870E-01  2.402313652118E-01  2.029721488796E-01
  1.701483581625E-01  1.414186929718E-01  1.164474467641E-01  9.490639702517E-02
  7.647660233362E-02  6.085008469346E-02  4.773137680662E-02  3.683891533823E-02
  2.790626301580E-02  2.068314458654E-02  1.493628421755E-02  1.045003483254E-02
  7.026793093921E-03  4.487197208965E-03  2.670108398766E-03  1.432380645524E-03
  6.484271423338E-04  2.095956196095E-04  2.336831572362E-05  1.240569606615E-05
  1.134560039242E-04  2.761552509185E-04  4.617442336284E-04  6.417305166267E-04
  7.965239851209E-04  9.140744957643E-04  9.885393167193E-04  1.019006447147E-03
  1.008297568244E-03  9.618713571839E-04  8.868442744925E-04  7.911418244969E-04
  6.827888219270E-04  5.693425310023E-04  4.574678470069E-04  3.526491439811E-04
  2.590291961933E-04  1.793618683925E-04  1.150622167957E-04  6.633538012737E-05
  3.236426469910E-05  1.153559537077E-05  1.684424641752E-06  3.386249007588E-07
  4.947143913121E-06  1.307874371327E-05  2.258138986717E-05  3.169620136192E-05
  3.912368115545E-05  4.404358821442E-05  4.609305853695E-05  4.531023647874E-05
  4.205258159370E-05  3.690006769420E-05  3.055365154215E-05  2.373868898435E-05
  1.712151510006E-05  1.124534221321E-05  6.489174642593E-06  3.050832397563E-06
  9.526680774625E-07  6.638864437746E-08  1.517560181908E-07  9.029792888108E-07
  1.996395122622E-06  3.133548468884E-06  4.074938744887E-06  4.661321997860E-06
  4.821339479407E-06  4.566133587061E-06  3.973273040747E-06  3.163535062549E-06
  2.274740052213E-06  1.436842830537E-06  7.518842821971E-07  2.813159762821E-07
  4.181639240959E-08  0.000000000000E+00  0.000000000000E+00  0.000000000000E+00
  0.000000000000E+00  0.000000000000E+00  0.000000000000E+00  0.000000000000E+00
  0.000000000000E+00  0.000000000000E+00  0.000000000000E+00  0.000000000000E+00
  0.000000000000E+00  0.000000000000E+00  0.000000000000E+00  0.000000000000E+00
  0.000000000000E+00  0.000000000000E+00  0.000000000000E+00  0.000000000000E+00
  0.000000000000E+00  0.000000000000E+00  0.000000000000E+00  0.000000000000E+00
  0.000000000000E+00  0.000000000000E+00  0.000000000000E+00  0.000000000000E+00
  0.000000000000E+00  0.000000000000E+00  0.000000000000E+00  0.000000000000E+00
  0.000000000000E+00  0.000000000000E+00  0.000000000000E+00  0.000000000000E+00
  0.000000000000E+00  0.000000000000E+00
</data>
</radfunc>
</pseudocore-charge>
<semilocal-potentials set="lj">
<slps n="5" l="s" j="0.5" rc="1.60864877422" eref="-3.12707377661">
<radfunc>
<data npts="290">
 -6.963057739752E+00 -6.964372140387E+00 -6.968426874559E+00 -6.975135228989E+00
 -6.984455100169E+00 -6.996697300071E+00 -7.012279382645E+00 -7.030094141214E+00
 -7.050089222310E+00 -7.073359040092E+00 -7.099526843477E+00 -7.127896058912E+00
 -7.162080238085E+00 -7.197663827660E+00 -7.239485206566E+00 -7.281085085118E+00
 -7.328782376693E+00 -7.373791808143E+00 -7.424157094231E+00 -7.480467789829E+00
 -7.543365952625E+00 -7.598893310364E+00 -7.659462390314E+00 -7.725476628849E+00
 -7.797360877182E+00 -7.875560254362E+00 -7.960538393665E+00 -8.029008600918E+00
 -8.101768666239E+00 -8.179028910756E+00 -8.261001557766E+00 -8.347899357151E+00
 -8.439933986130E+00 -8.537314209750E+00 -8.640243785721E+00 -8.748919100040E+00
 -8.863526522342E+00 -8.984239473202E+00 -9.068185156671E+00 -9.154956583870E+00
 -9.244591260078E+00 -9.337121793779E+00 -9.432575354805E+00 -9.530973110481E+00
 -9.632329641371E+00 -9.736652338533E+00 -9.843940784538E+00 -9.954186120833E+00
 -1.006737040435E+01 -1.018346595664E+01 -1.030243470902E+01 -1.042422754770E+01
 -1.054878366294E+01 -1.067602990655E+01 -1.080588016253E+01 -1.093823473529E+01
 -1.107297976056E+01 -1.120998664369E+01 -1.134911153041E+01 -1.149019481470E+01
 -1.163306068881E+01 -1.177751673962E+01 -1.192335359607E+01 -1.207034463154E+01
 -1.221824572504E+01 -1.236679508489E+01 -1.251571313784E+01 -1.259021818362E+01
 -1.266470248690E+01 -1.273912609284E+01 -1.281344794026E+01 -1.288762586657E+01
 -1.296161661401E+01 -1.303537583701E+01 -1.310885811086E+01 -1.318201694163E+01
 -1.325480477731E+01 -1.332717302035E+01 -1.339907204144E+01 -1.347045119470E+01
 -1.354125883416E+01 -1.361144233173E+01 -1.368094809651E+01 -1.374972159564E+01
 -1.381770737656E+01 -1.388484909082E+01 -1.395108951952E+01 -1.401637060028E+01
 -1.408063345589E+01 -1.414381842465E+01 -1.420586509253E+01 -1.426671232703E+01
 -1.432629831301E+01 -1.438456059034E+01 -1.444143609363E+01 -1.449686119392E+01
 -1.455077174251E+01 -1.460310311697E+01 -1.465379026928E+01 -1.470276777636E+01
 -1.474996989280E+01 -1.479533060602E+01 -1.483878369379E+01 -1.488026278413E+01
 -1.491970141770E+01 -1.495703311248E+01 -1.499219143092E+01 -1.502511004932E+01
 -1.505572282953E+01 -1.508396389266E+01 -1.510976769488E+01 -1.513306910492E+01
 -1.515380348318E+01 -1.517190676210E+01 -1.518731552753E+01 -1.519996710064E+01
 -1.520979962003E+01 -1.521675212350E+01 -1.522076462886E+01 -1.522177821339E+01
 -1.521973509101E+01 -1.521457868666E+01 -1.520625370702E+01 -1.519470620684E+01
 -1.517988365002E+01 -1.516173496466E+01 -1.514021059129E+01 -1.511526252349E+01
 -1.508684434038E+01 -1.505491123023E+01 -1.501942000511E+01 -1.498032910619E+01
 -1.493759860010E+01 -1.489119016677E+01 -1.484106707975E+01 -1.478719418069E+01
 -1.472953785002E+01 -1.466806597701E+01 -1.460274793288E+01 -1.453355455207E+01
 -1.446045812748E+01 -1.438343242740E+01 -1.430245274270E+01 -1.421749597490E+01
 -1.412854077758E+01 -1.403556776512E+01 -1.393855980553E+01 -1.383750241583E+01
 -1.373238428130E+01 -1.362319792209E+01 -1.350994053359E+01 -1.339261502936E+01