<?xml version="1.0" encoding="UTF-8" ?>
<psml version="1.1" energy_unit="hartree" length_unit="bohr"
 uuid="44794b40-53a1-11e8-6d21-3955f7bf471b"
 xmlns="http://esl.cecam.org/PSML/ns/1.1">
<provenance creator="ONCVPSP-3.3.0+psml-3.3.0-73 (fully-relativistic)"
 date="2018-05-09">
<annotation action="semilocal-pseudopotential-generation"
 action-cont="projectors-generation" />
<input-file name="oncvpsp-input">
<![CDATA[# atsym z nc nv iexc psfile
Ag 47 6 4 -116133 upf
# n l f
1 0 2.0
2 0 2.0
2 1 6.0
3 0 2.0
3 1 6.0
3 2 10.0
4 0 2.0
4 1 6.0
4 2 10.0
5 0 1.0
# lmax
2
# l rc ep ncon nbas qcut
0 1.4 0.0 4 8 9.2
1 1.45 0.0 4 8 9.2
2 1.6 0.0 4 8 9.2
# lloc lpopt rc5 dvloc0
4 5 1.4 0.0
# l nproj debl
0 2 1.0
1 2 1.0
2 2 1.0
# icmod fcfact
3 7.0 1.24
# epsh1 epsh2 depsh
-12.0 12.0 0.02
# rlmax drl
6.0 0.01
 0
]]>
</input-file>
</provenance>
<pseudo-atom-spec atomic-label="Ag" atomic-number="47" z-pseudo="19"
 flavor="Hamann&apos;s oncvpsp" relativity="dirac" spin-dft="no"
 core-corrections="yes">
<annotation pseudo-energy="-147.254419468" />
<exchange-correlation>
<annotation oncvpsp-xc-code="-116133" oncvpsp-xc-type="libxc-interface" />
<libxc-info number-of-functionals="2">
<functional name="Perdew, Burke &amp; Ernzerhof SOL (GGA)" type="exchange"
 id="116" />
<functional name="Perdew, Burke &amp; Ernzerhof SOL (GGA)" type="correlation"
 id="133" />
</libxc-info>
</exchange-correlation>
<valence-configuration total-valence-charge="19">
<shell n="4" l="s" occupation="2" />
<shell n="4" l="p" occupation="6" />
<shell n="4" l="d" occupation="10" />
<shell n="5" l="s" occupation="1" />
</valence-configuration>
</pseudo-atom-spec>
<grid npts="458">
<annotation type="sampled from oncvpsp log grid"
 recipe="r(i:1..N) = r1*exp(a*(i-1)) + r=0; resampled"
 recipe-cont="r1: scale; a: step" scale="0.106382978723E-04"
 step="0.119285708653E-01" delta="0.500000000000E-02" rmax="44.4188311520" />
<grid-data>
  0.000000000000E+00  5.012063889261E-03  1.013133873758E-02  1.519862365413E-02
  2.023655404941E-02  2.538436470997E-02  3.072235470001E-02  3.587576424974E-02
  4.090597974922E-02  4.608843105027E-02  5.131171573174E-02  5.644956981122E-02
  6.210187841956E-02  6.751003360562E-02  7.251893194389E-02  7.789946485591E-02
  8.367920572152E-02  8.882191079441E-02  9.428067306739E-02  1.000749165892E-01
  1.062252591596E-01  1.114165866549E-01  1.168616191670E-01  1.225727554967E-01
  1.285630003858E-01  1.348459941300E-01  1.414360436389E-01  1.465890859822E-01
  1.519298728687E-01  1.574652445318E-01  1.632022904206E-01  1.691483582787E-01
  1.753110635559E-01  1.816982991609E-01  1.883182455706E-01  1.951793813071E-01
  2.022904937969E-01  2.096606906249E-01  2.147227383393E-01  2.199070041338E-01
  2.252164388416E-01  2.306540645410E-01  2.362229762752E-01  2.419263438144E-01
  2.477674134595E-01  2.537495098901E-01  2.598760380568E-01  2.661504851197E-01
  2.725764224324E-01  2.791575075756E-01  2.858974864385E-01  2.928001953511E-01
  2.998695632677E-01  3.071096140032E-01  3.145244685237E-01  3.221183472917E-01
  3.298955726687E-01  3.378605713752E-01  3.460178770105E-01  3.543721326331E-01
  3.629280934034E-01  3.716906292905E-01  3.806647278441E-01  3.898554970332E-01
  3.992681681535E-01  4.089080988054E-01  4.187807759430E-01  4.238061452543E-01
  4.288918189973E-01  4.340385208253E-01  4.392469830752E-01  4.445179468721E-01
  4.498521622346E-01  4.552503881814E-01  4.607133928396E-01  4.662419535537E-01
  4.718368569963E-01  4.774988992803E-01  4.832288860716E-01  4.890276327045E-01
  4.948959642969E-01  5.008347158685E-01  5.068447324589E-01  5.129268692484E-01
  5.190819916794E-01  5.253109755796E-01  5.316147072865E-01  5.379940837739E-01
  5.444500127792E-01  5.509834129326E-01  5.575952138878E-01  5.642863564544E-01
  5.710577927319E-01  5.779104862447E-01  5.848454120796E-01  5.918635570246E-01
  5.989659197089E-01  6.061535107454E-01  6.134273528743E-01  6.207884811088E-01
  6.282379428821E-01  6.357767981967E-01  6.434061197750E-01  6.511269932123E-01
  6.589405171309E-01  6.668478033365E-01  6.748499769765E-01  6.829481767002E-01
  6.911435548206E-01  6.994372774785E-01  7.078305248082E-01  7.163244911059E-01
  7.249203849992E-01  7.336194296192E-01  7.424228627746E-01  7.513319371279E-01
  7.603479203734E-01  7.694720954179E-01  7.787057605629E-01  7.880502296897E-01
  7.975068324460E-01  8.070769144353E-01  8.167618374085E-01  8.265629794574E-01
  8.364817352109E-01  8.465195160335E-01  8.566777502259E-01  8.669578832286E-01
  8.773613778273E-01  8.878897143612E-01  8.985443909336E-01  9.093269236248E-01
  9.202388467083E-01  9.312817128688E-01  9.424570934232E-01  9.537665785443E-01
  9.652117774868E-01  9.767943188166E-01  9.885158506424E-01  1.000378040850E+00
  1.012382577340E+00  1.024531168268E+00  1.036825542288E+00  1.049267448795E+00
  1.061858658181E+00  1.074600962079E+00  1.087496173624E+00  1.100546127707E+00
  1.113752681240E+00  1.127117713415E+00  1.140643125976E+00  1.154330843487E+00
  1.168182813609E+00  1.182201007372E+00  1.196387419461E+00  1.210744068494E+00
  1.225272997316E+00  1.239976273284E+00  1.254855988564E+00  1.269914260426E+00
  1.285153231551E+00  1.300575070330E+00  1.316181971174E+00  1.331976154828E+00
  1.347959868686E+00  1.364135387110E+00  1.380505011756E+00  1.397071071897E+00
  1.413835924759E+00  1.430801955857E+00  1.447971579327E+00  1.465347238279E+00
  1.482931405138E+00  1.500726582000E+00  1.518735300984E+00  1.536960124596E+00
  1.555403646091E+00  1.574068489844E+00  1.592957311722E+00  1.612072799463E+00
  1.631417673056E+00  1.650994685133E+00  1.670806621354E+00  1.690856300811E+00
  1.711146576420E+00  1.731680335337E+00  1.752460499362E+00  1.773490025354E+00
  1.794771905658E+00  1.816309168526E+00  1.838104878548E+00  1.860162137091E+00
  1.882484082736E+00  1.905073891729E+00  1.927934778430E+00  1.951069995771E+00
  1.974482835720E+00  1.998176629749E+00  2.022154749306E+00  2.046420606297E+00
  2.070977653573E+00  2.095829385416E+00  2.120979338041E+00  2.146431090097E+00
  2.172188263178E+00  2.198254522336E+00  2.224633576605E+00  2.251329179524E+00
  2.278345129678E+00  2.305685271234E+00  2.333353494489E+00  2.361353736423E+00
  2.389689981260E+00  2.418366261035E+00  2.447386656167E+00  2.476755296041E+00
  2.506476359594E+00  2.536554075909E+00  2.566992724820E+00  2.597796637518E+00
  2.628970197168E+00  2.660517839534E+00  2.692444053609E+00  2.724753382252E+00
  2.757450422839E+00  2.790539827913E+00  2.824026305848E+00  2.857914621518E+00
  2.892209596976E+00  2.926916112140E+00  2.962039105486E+00  2.997583574751E+00
  3.033554577648E+00  3.069957232580E+00  3.106796719371E+00  3.144078280004E+00
  3.181807219364E+00  3.219988905996E+00  3.258628772868E+00  3.297732318142E+00
  3.337305105960E+00  3.377352767232E+00  3.417881000438E+00  3.458895572444E+00
  3.500402319313E+00  3.542407147145E+00  3.584916032911E+00  3.627935025305E+00
  3.671470245609E+00  3.715527888556E+00  3.760114223219E+00  3.805235593898E+00
  3.850898421025E+00  3.897109202077E+00  3.943874512502E+00  3.991201006652E+00
  4.039095418732E+00  4.087564563756E+00  4.136615338521E+00  4.186254722584E+00
  4.236489779255E+00  4.287327656606E+00  4.338775588485E+00  4.390840895547E+00
  4.443530986293E+00  4.496853358129E+00  4.550815598426E+00  4.605425385608E+00
  4.660690490235E+00  4.716618776118E+00  4.773218201431E+00  4.830496819848E+00
  4.888462781686E+00  4.947124335067E+00  5.006489827088E+00  5.066567705013E+00
  5.127366517473E+00  5.188894915682E+00  5.251161654671E+00  5.314175594527E+00
  5.377945701661E+00  5.442481050081E+00  5.507790822682E+00  5.573884312554E+00
  5.640770924305E+00  5.708460175396E+00  5.776961697501E+00  5.846285237871E+00
  5.916440660726E+00  5.987437948654E+00  6.059287204038E+00  6.131998650487E+00
  6.205582634292E+00  6.280049625904E+00  6.355410221415E+00  6.431675144072E+00
  6.508855245801E+00  6.586961508750E+00  6.666005046855E+00  6.745997107417E+00
  6.826949072706E+00  6.908872461579E+00  6.991778931118E+00  7.075680278291E+00
  7.160588441631E+00  7.246515502930E+00  7.333473688966E+00  7.421475373233E+00
  7.510533077712E+00  7.600659474644E+00  7.691867388340E+00  7.784169797000E+00
  7.877579834564E+00  7.972110792579E+00  8.067776122090E+00  8.164589435555E+00
  8.262564508782E+00  8.361715282887E+00  8.462055866282E+00  8.563600536677E+00
  8.666363743117E+00  8.770360108035E+00  8.875604429331E+00  8.982111682483E+00
  9.089897022673E+00  9.198975786945E+00  9.309363496388E+00  9.421075858345E+00
  9.534128768645E+00  9.648538313869E+00  9.764320773635E+00  9.881492622919E+00
  1.000007053439E+01  1.012007138081E+01  1.024151223738E+01  1.036441038422E+01
  1.048878330884E+01  1.061464870854E+01  1.074202449304E+01  1.087092878696E+01
  1.100137993240E+01  1.113339649159E+01  1.126699724949E+01  1.140220121649E+01
  1.153902763108E+01  1.167749596266E+01  1.181762591421E+01  1.195943742518E+01
  1.210295067428E+01  1.224818608237E+01  1.239516431536E+01  1.254390628715E+01
  1.269443316259E+01  1.284676636054E+01  1.300092755687E+01  1.315693868755E+01
  1.331482195180E+01  1.347459981522E+01  1.363629501301E+01  1.379993055316E+01
  1.396552971980E+01  1.413311607644E+01  1.430271346936E+01  1.447434603099E+01
  1.464803818336E+01  1.482381464156E+01  1.500170041726E+01  1.518172082227E+01
  1.536390147213E+01  1.554826828980E+01  1.573484750928E+01  1.592366567939E+01
  1.611474966754E+01  1.630812666355E+01  1.650382418351E+01  1.670187007371E+01
  1.690229251460E+01  1.710512002477E+01  1.731038146507E+01  1.751810604265E+01
  1.772832331516E+01  1.794106319495E+01  1.815635595329E+01  1.837423222473E+01
  1.859472301142E+01  1.881785968756E+01  1.904367400381E+01  1.927219809186E+01
  1.950346446896E+01  1.973750604259E+01  1.997435611510E+01  2.021404838848E+01
  2.045661696914E+01  2.070209637277E+01  2.095052152924E+01  2.120192778759E+01
  2.145635092104E+01  2.171382713210E+01  2.197439305768E+01  2.223808577437E+01
  2.250494280367E+01  2.277500211731E+01  2.304830214272E+01  2.332488176843E+01
  2.360478034965E+01  2.388803771385E+01  2.417469416641E+01  2.446479049641E+01
  2.475836798237E+01  2.505546839816E+01  2.535613401893E+01  2.566040762716E+01
  2.596833251869E+01  2.627995250891E+01  2.659531193902E+01  2.691445568229E+01
  2.723742915047E+01  2.756427830028E+01  2.789504963988E+01  2.822979023556E+01
  2.856854771839E+01  2.891137029101E+01  2.925830673450E+01  2.960940641532E+01
  2.996471929230E+01  3.032429592381E+01  3.068818747489E+01  3.105644572459E+01
  3.142912307329E+01  3.180627255017E+01  3.218794782077E+01  3.257420319462E+01
  3.296509363295E+01  3.336067475655E+01  3.376100285363E+01  3.416613488787E+01
  3.457612850652E+01  3.499104204860E+01  3.541093455319E+01  3.583586576782E+01
  3.626589615704E+01  3.670108691092E+01  3.714149995385E+01  3.758719795330E+01
  3.803824432874E+01  3.849470326068E+01  3.895663969981E+01  3.942411937621E+01
  3.989720880872E+01  4.037597531443E+01  4.086048701820E+01  4.135081286242E+01
  4.184702261677E+01  4.234918688817E+01  4.285737713083E+01  4.337166565640E+01
  4.389212564428E+01  4.441883115201E+01
</grid-data>
</grid>
<valence-charge total-charge="19" is-unscreening-charge="yes"
 rescaled-to-z-pseudo="no">
<radfunc>
<data npts="458">
  2.186590106775E+00  2.189121176376E+00  2.196932327146E+00  2.209865891598E+00
  2.227855945325E+00  2.251525048550E+00  2.281714178133E+00  2.316315139686E+00
  2.355260625362E+00  2.400731030855E+00  2.452053092729E+00  2.507919292260E+00
  2.575550940340E+00  2.646317638224E+00  2.717145789131E+00  2.798894491915E+00
  2.893248217982E+00  2.982898601351E+00  3.083927666032E+00  3.197777405850E+00
  3.326070465061E+00  3.440322957727E+00  3.566019751600E+00  3.704298497302E+00
  3.856406145442E+00  4.023708039238E+00  4.207697267816E+00  4.357615539006E+00
  4.518575864613E+00  4.691368089500E+00  4.876832431086E+00  5.075861175115E+00
  5.289400032082E+00  5.518449031941E+00  5.764062807638E+00  6.027350086272E+00
  6.309472169900E+00  6.611640145542E+00  6.824840871081E+00  7.047890795865E+00
  7.281178886533E+00  7.525099483586E+00  7.780050721941E+00  8.046432652755E+00
  8.324645030344E+00  8.615084725165E+00  8.918142721052E+00  9.234200652276E+00
  9.563626833583E+00  9.906771734339E+00  1.026396284641E+01  1.063549889454E+01
  1.102164333815E+01  1.142261711463E+01  1.183859057693E+01  1.226967458262E+01
  1.271591069830E+01  1.317726049202E+01  1.365359389876E+01  1.414467665912E+01
  1.465015685109E+01  1.516955055826E+01  1.570222674662E+01  1.624739145622E+01
  1.680407145352E+01  1.737109753623E+01  1.794708773409E+01  1.823795023651E+01
  1.853043070739E+01  1.882428925760E+01  1.911926970821E+01  1.941509915132E+01
  1.971148753855E+01  2.000812730186E+01  2.030469301168E+01  2.060084107775E+01
  2.089620949797E+01  2.119041766140E+01  2.148306621128E+01  2.177373697444E+01
  2.206199296376E+01  2.234737846030E+01  2.262941918199E+01  2.290762254602E+01
  2.318147803176E+01  2.345045765153E+01  2.371401653613E+01  2.397159364207E+01
  2.422261258715E+01  2.446648262111E+01  2.470259973705E+01  2.493034792962E+01
  2.514910060485E+01  2.535822214606E+01  2.555706963955E+01  2.574499476258E+01
  2.592134583556E+01  2.608547003867E+01  2.623671579228E+01  2.637443529891E+01
  2.649798724274E+01  2.660673964143E+01  2.670007284271E+01  2.677738265646E+01
  2.683808361121E+01  2.688161232128E+01  2.690743094924E+01  2.691503074551E+01
  2.690393564513E+01  2.687370589904E+01  2.682394171516E+01  2.675428688240E+01
  2.666443234831E+01  2.655411971948E+01  2.642314465173E+01  2.627136009574E+01
  2.609867936218E+01  2.590507896983E+01  2.569060123914E+01  2.545535659372E+01
  2.519952553228E+01  2.492336023453E+01  2.462718576555E+01  2.431140084502E+01
  2.397647815027E+01  2.362296412489E+01  2.325147826846E+01  2.286271188696E+01
  2.245742628866E+01  2.203645041512E+01  2.160067790334E+01  2.115106358126E+01
  2.068861940562E+01  2.021440985819E+01  1.972954682406E+01  1.923518398253E+01
  1.873251074907E+01  1.822274581376E+01  1.770713032867E+01  1.718692080311E+01
  1.666338177175E+01  1.613777830577E+01  1.561136844133E+01  1.508539560361E+01
  1.456108110617E+01  1.403961680729E+01  1.352215800403E+01  1.300981664387E+01
  1.250365493060E+01  1.200467939715E+01  1.151383551271E+01  1.103200288475E+01
  1.055999110907E+01  1.009853631209E+01  9.648298420507E+00  9.209859183013E+00
  8.783720958644E+00  8.370306275300E+00  7.969958151483E+00  7.582941163653E+00
  7.209443231461E+00  6.849578083464E+00  6.503388357024E+00  6.170849277924E+00
  5.851872858008E+00  5.546312542899E+00  5.253968236579E+00  4.974591625395E+00
  4.707891720928E+00  4.453540760211E+00  4.211180987509E+00  3.980431749761E+00
  3.760895109743E+00  3.552163758447E+00  3.353829982667E+00  3.165488889026E+00
  2.986741152531E+00  2.817195266365E+00  2.656469248861E+00  2.504191782094E+00
  2.360002389848E+00  2.223549673938E+00  2.094488792399E+00  1.972482381052E+00
  1.857201230270E+00  1.748324899321E+00  1.645542223000E+00  1.548551718325E+00
  1.457061899048E+00  1.370791505537E+00  1.289469657450E+00  1.212835936378E+00
  1.140640405364E+00  1.072643571936E+00  1.008616300967E+00  9.483396833491E-01
  8.916048661264E-01  8.382128493815E-01  7.879742548197E-01  7.407090706353E-01
  6.962463768991E-01  6.544240553579E-01  6.150884872009E-01  5.780942420225E-01
  5.433037608953E-01  5.105870361679E-01  4.798212903143E-01  4.508906558922E-01
  4.236858584130E-01  3.981039036863E-01  3.740477709810E-01  3.514261131406E-01
  3.301529645975E-01  3.101474580630E-01  2.913335505065E-01  2.736397588988E-01
  2.569989060640E-01  2.413478768681E-01  2.266273848754E-01  2.127817495074E-01
  1.997586836663E-01  1.875090917148E-01  1.759868776449E-01  1.651487632232E-01
  1.549541158554E-01  1.453647858829E-01  1.363449529966E-01  1.278609814323E-01
  1.198812835999E-01  1.123761917858E-01  1.053178375647E-01  9.868003855411E-02
  9.243819214586E-02  8.656917585491E-02  8.105125393010E-02  7.586398988144E-02
  7.098816458782E-02  6.640569966066E-02  6.209958575114E-02  5.805381550166E-02
  5.425332085575E-02  5.068391445431E-02  4.733223486005E-02  4.418569536582E-02
  4.123243615613E-02  3.846127960477E-02  3.586168850420E-02  3.342372703511E-02
  3.113802429646E-02  2.899574022793E-02  2.698853376725E-02  2.510853309527E-02
  2.334830783019E-02  2.170084304733E-02  2.015951499256E-02  1.871806838834E-02
  1.737059522012E-02  1.611151490474E-02  1.493555574733E-02  1.383773759855E-02
  1.281335562913E-02  1.185796514352E-02  1.096736735886E-02  1.013759607984E-02
  9.364905203981E-03  8.645756995924E-03  7.976811073014E-03  7.354914048297E-03
  6.777089780599E-03  6.240530184979E-03  5.742586560291E-03  5.280761394025E-03
  4.852700607843E-03  4.456186210450E-03  4.089129327453E-03  3.749563580763E-03
  3.435638792843E-03  3.145614993625E-03  2.877856710314E-03  2.630827522453E-03
  2.403084866583E-03  2.193275076637E-03  2.000128647742E-03  1.822455712521E-03
  1.659141720195E-03  1.509143309780E-03  1.371484369605E-03  1.245252276066E-03
  1.129594305136E-03  1.023714210646E-03  9.268689636947E-04  8.383656478481E-04
  7.575585049943E-04  6.838461268416E-04  6.166687871541E-04  5.555059098589E-04
  4.998736681828E-04  4.493227099765E-04  4.034360043792E-04  3.618268049682E-04
  3.241367245383E-04  2.900339166655E-04  2.592113592408E-04  2.313852352038E-04
  2.062934057818E-04  1.836939716279E-04  1.633639173714E-04  1.450978352262E-04
  1.287067234599E-04  1.140168556945E-04  1.008687171921E-04  8.911600446759E-05
  7.862468476589E-05  6.927211213415E-05  6.094619701387E-05  5.354462646301E-05
  4.697413229782E-05  4.114980461287E-05  3.599444829540E-05  3.143798029568E-05
  2.741686554785E-05  2.387358955626E-05  2.075616577041E-05  1.801767596846E-05
  1.561584195573E-05  1.351262696133E-05  1.167386518495E-05  1.006891800718E-05
  8.670355432922E-06  7.453661388127E-06  6.396961537669E-06  5.480772336866E-06
  4.687770071783E-06  4.002578685048E-06  3.411575224766E-06  2.902711794755E-06
  2.465352925066E-06  2.090127322846E-06  1.768793005075E-06  1.494114856709E-06
  1.259753700179E-06  1.060166005003E-06  8.905134092462E-07  7.465812676987E-07
  6.247054845883E-07  5.217069313117E-07  4.348327918482E-07  3.617042199730E-07
  3.002697329754E-07  2.487638061114E-07  2.056701703365E-07  1.696893528304E-07
  1.397100353262E-07  1.147838391992E-07  9.410317857378E-08  7.698185332703E-08
  6.283808275959E-08  5.117970786363E-08  4.159131553596E-08  3.372306178676E-08
  2.728099300686E-08  2.201868472344E-08  1.773003604842E-08  1.424307526658E-08
  1.141464778981E-08  9.125872088734E-09  7.278262289369E-09  5.790427990787E-09
  4.595272406903E-09  3.637619781224E-09  2.872211799895E-09  2.262018927019E-09
  1.776821927801E-09  1.389004801914E-09  1.085457189848E-09  8.459536946346E-10
  6.574945451514E-10  5.096076309538E-10  3.938802767913E-10  3.035730597714E-10
  2.333022036584E-10  1.787791256655E-10  1.365974727407E-10  1.040594998444E-10
  7.903494207365E-11  5.984664277310E-11  4.517814530570E-11  3.399925864911E-11
  2.550628577973E-11  1.907417600958E-11  1.421834314743E-11  1.056429380957E-11
  7.823545983390E-12  5.774597124903E-12  4.247932380953E-12  3.114254502699E-12
  2.275274136274E-12  1.656527980997E-12  1.201797520024E-12  8.687866627889E-13
  6.257860833560E-13  4.491081479435E-13  3.211214915634E-13  2.287505263023E-13
  1.623341039804E-13  1.147605900161E-13  8.081486829131E-14  5.668722085465E-14
  3.960537382768E-14  2.755989284917E-14  1.910005138493E-14  1.318268993742E-14
  9.060760623014E-15  6.201471573557E-15  4.226417885150E-15  2.867976042939E-15
  1.937677802912E-15  1.303370393064E-15  8.727932606550E-16  5.818203197058E-16
  3.860795438743E-16  2.550065033566E-16  1.676440485757E-16  1.096889835464E-16
  7.142514692744E-17  4.628363957725E-17  2.984466864667E-17  1.914887564529E-17
  1.222450001421E-17  7.764329855137E-18  4.906087767983E-18  3.083885250087E-18
  1.928259315372E-18  1.199249206818E-18  7.418264651025E-19  4.563687064363E-19
  2.792038918442E-19  1.698596530013E-19  1.027526125364E-19  6.180160376186E-20
  3.695564863794E-20  2.196876827996E-20  1.298205692702E-20  7.625410653617E-21
  0.000000000000E+00  0.000000000000E+00  0.000000000000E+00  0.000000000000E+00
  0.000000000000E+00  0.000000000000E+00  0.000000000000E+00  0.000000000000E+00
  0.000000000000E+00  0.000000000000E+00  0.000000000000E+00  0.000000000000E+00
  0.000000000000E+00  0.000000000000E+00
</data>
</radfunc>
</valence-charge>
<pseudocore-charge matching-radius="0.606153510745"
 number-of-continuous-derivatives="4">
<annotation model-charge-form="Teter function with specified parameters" />
<radfunc>
<data npts="291">
  1.902183024635E+02  1.901915808367E+02  1.901091395263E+02  1.899727161774E+02
  1.897831256606E+02  1.895339840430E+02  1.892167026994E+02  1.888537271130E+02
  1.884460320098E+02  1.879711725631E+02  1.874366699732E+02  1.868565980656E+02
  1.861567931576E+02  1.854273739253E+02  1.847001868994E+02  1.838644080044E+02
  1.829044077695E+02  1.819968236601E+02  1.809793079737E+02  1.798392627684E+02
  1.785628388570E+02  1.774333577176E+02  1.761985084872E+02  1.748493081793E+02
  1.733761854214E+02  1.717689810188E+02  1.700169592098E+02  1.686011358988E+02
  1.670925609710E+02  1.654861332208E+02  1.637766212835E+02  1.619586863845E+02
  1.600269104812E+02  1.579758304948E+02  1.557999793719E+02  1.534939347508E+02
  1.510523760290E+02  1.484701506358E+02  1.466680824461E+02  1.447999310732E+02
  1.428643980235E+02  1.408602764546E+02  1.387864659640E+02  1.366419884581E+02
  1.344260051109E+02  1.321378344088E+02  1.297769712666E+02  1.273431071795E+02
  1.248361513615E+02  1.222562527934E+02  1.196038230843E+02  1.168795600161E+02
  1.140844716142E+02  1.112199005493E+02  1.082875486376E+02  1.052895011648E+02
  1.022282507134E+02  9.910672012744E+01  9.592828419379E+01  9.269678957282E+01
  8.941657245385E+01  8.609247336142E+01  8.272984848683E+01  7.933457687325E+01
  7.591306274147E+01  7.247223221092E+01  6.901952364907E+01  6.729117568945E+01
  6.556287087483E+01  6.383567429558E+01  6.211067845232E+01  6.038900200032E+01
  5.867178834329E+01  5.696020407206E+01  5.525543724428E+01  5.355869550165E+01
  5.187120402187E+01  5.019420330323E+01  4.852894678050E+01  4.687669827164E+01
  4.523872925574E+01  4.361631598382E+01  4.201073642494E+01  4.042326705156E+01
  3.885517946927E+01  3.730773689722E+01  3.578219050743E+01  3.427977563223E+01
  3.280170785105E+01  3.134917896921E+01  2.992335290315E+01  2.852536148839E+01
  2.715630022806E+01  2.581722400186E+01  2.450914275696E+01  2.323301720424E+01
  2.198975454481E+01  2.078020425363E+01  1.960515394837E+01  1.846532537343E+01
  1.736137052994E+01  1.629386798397E+01  1.526331938611E+01  1.427014623596E+01
  1.331468692585E+01  1.239719409803E+01  1.151783234916E+01  1.067667631571E+01
  9.873709172534E+00  9.108821575546E+00  8.381811077586E+00  7.692382044118E+00
  7.040146092554E+00  6.424623075646E+00  5.845242625485E+00  5.301346270298E+00
  4.792190131313E+00  4.316948201687E+00  3.874716203620E+00  3.464516013683E+00
  3.085300639820E+00  2.735959726674E+00  2.415325558947E+00  2.122179525330E+00
  1.855258998509E+00  1.613264579685E+00  1.394867649354E+00  1.198718159655E+00
  1.023452597740E+00  8.677020443853E-01  7.301002476378E-01  6.092916278189E-01
  5.039391278220E-01  4.127318214710E-01  3.343921928883E-01  2.676830014432E-01
  2.114136499918E-01  1.644459788468E-01  1.256994142319E-01  9.415540787909E-02
  6.886111386120E-02  4.893225961801E-02  3.355518029339E-02  2.198799876701E-02
  1.356094790453E-02  7.675846290803E-03  3.804753737616E-03  1.487847822108E-03
  3.305772398907E-04  1.614553145800E-07  2.215186020606E-04  7.727144376587E-04
  1.480034013598E-03  2.212784251437E-03  2.877939528176E-03  3.414743450179E-03
  3.789378092981E-03  3.989807055511E-03  4.020890775461E-03  3.899861840449E-03
  3.652234782474E-03  3.308209445791E-03  2.899609958578E-03  2.457383194250E-03
  2.009662027943E-03  1.580380373912E-03  1.188409645340E-03  8.471706104446E-04
  5.646612799680E-04  3.438310188470E-04  1.832239777757E-04  7.781148756574E-05
  1.993337509413E-05  2.721772819275E-07  8.791684067809E-06  3.558167501352E-05
  7.156349429467E-05  1.090254583561E-04  1.419721307735E-04  1.662863024186E-04
  1.797161658097E-04  1.817118294398E-04  1.731442771180E-04  1.559456284722E-04
  1.327118270200E-04  1.063076646655E-04  7.950961253831E-05  5.471479230180E-05
  3.373533326859E-05  1.768722127303E-05  6.972537475627E-06  1.344680715255E-06
  3.863277277602E-08  1.943236694946E-06  5.790224630991E-06  1.033545288998E-05
  1.451125205944E-05  1.753444940150E-05  1.896169460938E-05  1.869128886543E-05
  1.691780992886E-05  1.405155295715E-05  1.061847639796E-05  7.157555703227E-06
  4.131155798006E-06  1.860546250757E-06  4.936268190404E-07  6.154652970855E-09
  0.000000000000E+00  0.000000000000E+00  0.000000000000E+00  0.000000000000E+00
  0.000000000000E+00  0.000000000000E+00  0.000000000000E+00  0.000000000000E+00
  0.000000000000E+00  0.000000000000E+00  0.000000000000E+00  0.000000000000E+00
  0.000000000000E+00  0.000000000000E+00  0.000000000000E+00  0.000000000000E+00
  0.000000000000E+00  0.000000000000E+00  0.000000000000E+00  0.000000000000E+00
  0.000000000000E+00  0.000000000000E+00  0.000000000000E+00  0.000000000000E+00
  0.000000000000E+00  0.000000000000E+00  0.000000000000E+00  0.000000000000E+00
  0.000000000000E+00  0.000000000000E+00  0.000000000000E+00  0.000000000000E+00
  0.000000000000E+00  0.000000000000E+00  0.000000000000E+00  0.000000000000E+00
  0.000000000000E+00  0.000000000000E+00  0.000000000000E+00  0.000000000000E+00
  0.000000000000E+00  0.000000000000E+00  0.000000000000E+00  0.000000000000E+00
  0.000000000000E+00  0.000000000000E+00  0.000000000000E+00  0.000000000000E+00
  0.000000000000E+00  0.000000000000E+00  0.000000000000E+00  0.000000000000E+00
  0.000000000000E+00  0.000000000000E+00  0.000000000000E+00  0.000000000000E+00
  0.000000000000E+00  0.000000000000E+00  0.000000000000E+00  0.000000000000E+00
  0.000000000000E+00  0.000000000000E+00  0.000000000000E+00  0.000000000000E+00
  0.000000000000E+00  0.000000000000E+00  0.000000000000E+00  0.000000000000E+00
  0.000000000000E+00  0.000000000000E+00  0.000000000000E+00  0.000000000000E+00
  0.000000000000E+00  0.000000000000E+00  0.000000000000E+00  0.000000000000E+00
  0.000000000000E+00  0.000000000000E+00  0.000000000000E+00  0.000000000000E+00
  0.000000000000E+00  0.000000000000E+00  0.000000000000E+00
</data>
</radfunc>
</pseudocore-charge>
<semilocal-potentials set="lj">
<slps n="4" l="s" j="0.5" rc="1.41383592476" eref="-3.48795534119">
<radfunc>
<data npts="291">
 -7.227353822854E+00 -7.231122061960E+00 -7.242743393546E+00 -7.261960042440E+00
 -7.288636401639E+00 -7.323639956876E+00 -7.368131732371E+00 -7.418914481979E+00
 -7.475805940513E+00 -7.541873446245E+00 -7.615987652178E+00 -7.696120819729E+00
 -7.792381813719E+00 -7.892239630781E+00 -7.991311126919E+00 -8.104588998139E+00
 -8.233933971468E+00 -8.355467394763E+00 -8.490864328680E+00 -8.641500662336E+00
 -8.808837043486E+00 -8.955760761588E+00 -9.115171864036E+00 -9.287907623757E+00
 -9.474818307136E+00 -9.676758037408E+00 -9.894573691311E+00 -1.006885232906E+01
 -1.025286290609E+01 -1.044692608335E+01 -1.065134244568E+01 -1.086638749813E+01
 -1.109230625632E+01 -1.132930745434E+01 -1.157755740492E+01 -1.183717355929E+01
 -1.210821782707E+01 -1.239068973004E+01 -1.258532161454E+01 -1.278496378042E+01
 -1.298956105360E+01 -1.319904142315E+01 -1.341331518589E+01 -1.363227412299E+01
 -1.385579071583E+01 -1.408371740809E+01 -1.431588592089E+01 -1.455210662725E+01
 -1.479216799189E+01 -1.503583608131E+01 -1.528285414856E+01 -1.553294229589E+01
 -1.578579721739E+01 -1.604109202248E+01 -1.629847613981E+01 -1.655757529943E+01
 -1.681799158991E+01 -1.707930358550E+01 -1.734106653688E+01 -1.760281261799E+01
 -1.786405121995E+01 -1.812426928268E+01 -1.838293165369E+01 -1.863948146384E+01
 -1.889334051013E+01 -1.914390963664E+01 -1.939056910655E+01 -1.951223351360E+01
 -1.963267896128E+01 -1.975182235190E+01 -1.986957936667E+01 -1.998586447627E+01
 -2.010059095160E+01 -2.021367087496E+01 -2.032501515175E+01 -2.043453352317E+01
 -2.054213458008E+01 -2.064772577851E+01 -2.075121345719E+01 -2.085250285775E+01
 -2.095149814800E+01 -2.104810244917E+01 -2.114221786760E+01 -2.123374553192E+01
 -2.132258563650E+01 -2.140863749210E+01 -2.149179958472E+01 -2.157196964382E+01
 -2.164904472074E+01 -2.172292127857E+01 -2.179349529426E+01 -2.186066237406E+01
 -2.192431788281E+01 -2.198435708770E+01 -2.204067531673E+01 -2.209316813170E+01
 -2.214173151515E+01 -2.218626207026E+01 -2.222665723210E+01 -2.226281548815E+01
 -2.229463660532E+01 -2.232202186050E+01 -2.234487427096E+01 -2.236309882106E+01
 -2.237660268131E+01 -2.238529541667E+01 -2.238908918087E+01 -2.238789889499E+01
 -2.238164240929E+01 -2.237024064891E+01 -2.235361774540E+01 -2.233170115784E+01
 -2.230442178860E+01 -2.227171410005E+01 -2.223351623970E+01 -2.218977018129E+01
 -2.214042188964E+01 -2.208542151622E+01 -2.202472363171E+01 -2.195828749986E+01
 -2.188607739569E+01 -2.180806296905E+01 -2.172421965247E+01 -2.163452911078E+01
 -2.153897972825E+01 -2.143756712744E+01 -2.133029471338E+01 -2.121717423547E+01
 -2.109822635949E+01 -2.097348124155E+01 -2.084297909653E+01 -2.070677075342E+01
 -2.056491819115E+01 -2.041749504924E+01 -2.026458710869E+01 -2.010629274019E+01
 -1.994272331756E+01 -1.977400359644E+01 -1.960027205916E+01 -1.942168122856E+01
 -1.923839795453E+01 -1.905060367882E+01 -1.885849468465E+01 -1.866228233972E+01
 -1.846219334292E+01 -1.825846998743E+01 -1.805137045648E+01 -1.784116917162E+01
 -1.762815721888E+01 -1.741264288421E+01 -1.719495233741E+01 -1.697543051214E+01