<?xml version="1.0" encoding="UTF-8" ?>
<psml version="1.1" energy_unit="hartree" length_unit="bohr"
 uuid="84a7eab0-53a0-11e8-6733-5846fd639ba3"
 xmlns="http://esl.cecam.org/PSML/ns/1.1">
<provenance creator="ONCVPSP-3.3.0+psml-3.3.0-73 (fully-relativistic)"
 date="2018-05-09">
<annotation action="semilocal-pseudopotential-generation"
 action-cont="projectors-generation" />
<input-file name="oncvpsp-input">
<![CDATA[# atsym z nc nv iexc psfile
K 19 3 3 -116133 upf
# n l f
1 0 2.0
2 0 2.0
2 1 6.0
3 0 2.0
3 1 6.0
4 0 1.0
# lmax
2
# l rc ep ncon nbas qcut
0 1.35 0.0 4 8 8.2
1 1.45 0.0 4 8 8.6
2 1.6 0.05 4 8 8.2
# lloc lpopt rc5 dvloc0
4 5 1.1 0.0
# l nproj debl
0 2 1.0
1 2 0.8
2 2 0.5
# icmod fcfact
3 5 1.4
# epsh1 epsh2 depsh
-12.0 12.0 0.02
# rlmax drl
4.0 0.01
 0
]]>
</input-file>
</provenance>
<pseudo-atom-spec atomic-label="K" atomic-number="19" z-pseudo="9"
 flavor="Hamann&apos;s oncvpsp" relativity="dirac" spin-dft="no"
 core-corrections="yes">
<annotation pseudo-energy="-28.3259003318" />
<exchange-correlation>
<annotation oncvpsp-xc-code="-116133" oncvpsp-xc-type="libxc-interface" />
<libxc-info number-of-functionals="2">
<functional name="Perdew, Burke &amp; Ernzerhof SOL (GGA)" type="exchange"
 id="116" />
<functional name="Perdew, Burke &amp; Ernzerhof SOL (GGA)" type="correlation"
 id="133" />
</libxc-info>
</exchange-correlation>
<valence-configuration total-valence-charge="9">
<shell n="3" l="s" occupation="2" />
<shell n="3" l="p" occupation="6" />
<shell n="4" l="s" occupation="1" />
</valence-configuration>
</pseudo-atom-spec>
<grid npts="458">
<annotation type="sampled from oncvpsp log grid"
 recipe="r(i:1..N) = r1*exp(a*(i-1)) + r=0; resampled"
 recipe-cont="r1: scale; a: step" scale="0.263157894737E-04"
 step="0.119285708653E-01" delta="0.500000000000E-02" rmax="44.3805247454" />
<grid-data>
  0.000000000000E+00  5.007741529749E-03  1.012260156078E-02  1.518551649569E-02
  2.021910222441E-02  2.536247345865E-02  3.069586001339E-02  3.584482530836E-02
  4.087070279455E-02  4.604868479549E-02  5.126746496251E-02  5.640088820213E-02
  6.204832230958E-02  6.745181355051E-02  7.245639225921E-02  7.783228504730E-02
  8.360704151557E-02  8.874531156514E-02  9.419936624988E-02  9.998861286736E-02
  1.061336514369E-01  1.113205019773E-01  1.167608387415E-01  1.224670498379E-01
  1.284521287929E-01  1.347297041389E-01  1.413140704474E-01  1.464626688527E-01
  1.517988498918E-01  1.573294478995E-01  1.630615462106E-01  1.690024862325E-01
  1.751598768472E-01  1.815416041568E-01  1.881558415833E-01  1.950110603372E-01
  2.021160402665E-01  2.094798811020E-01  2.145375633513E-01  2.197173582809E-01
  2.250222141792E-01  2.304551505184E-01  2.360192596725E-01  2.417177086780E-01
  2.475537410363E-01  2.535306785599E-01  2.596519232631E-01  2.659209592983E-01
  2.723413549396E-01  2.789167646133E-01  2.856509309781E-01  2.925476870557E-01
  2.996109584119E-01  3.068447653918E-01  3.142532254075E-01  3.218405552817E-01
  3.296110736484E-01  3.375692034106E-01  3.457194742577E-01  3.540665252442E-01
  3.626151074297E-01  3.713700865835E-01  3.803364459540E-01  3.895192891051E-01
  3.989238428212E-01  4.085554600823E-01  4.184196231105E-01  4.234406585878E-01
  4.285219464909E-01  4.336642098488E-01  4.388681803670E-01  4.441345985314E-01
  4.494642137138E-01  4.548577842783E-01  4.603160776897E-01  4.658398706219E-01
  4.714299490694E-01  4.770871084582E-01  4.828121537597E-01  4.886058996048E-01
  4.944691704001E-01  5.004028004449E-01  5.064076340502E-01  5.124845256588E-01
  5.186343399668E-01  5.248579520464E-01  5.311562474709E-01  5.375301224406E-01
  5.439804839099E-01  5.505082497168E-01  5.571143487134E-01  5.637997208979E-01
  5.705653175487E-01  5.774121013593E-01  5.843410465756E-01  5.913531391345E-01
  5.984493768041E-01  6.056307693258E-01  6.128983385577E-01  6.202531186204E-01
  6.276961560438E-01  6.352285099163E-01  6.428512520353E-01  6.505654670598E-01
  6.583722526645E-01  6.662727196965E-01  6.742679923328E-01  6.823592082408E-01
  6.905475187397E-01  6.988340889646E-01  7.072200980321E-01  7.157067392085E-01
  7.242952200790E-01  7.329867627200E-01  7.417826038726E-01  7.506839951191E-01
  7.596922030605E-01  7.688085094973E-01  7.780342116112E-01  7.873706221506E-01
  7.968190696164E-01  8.063808984518E-01  8.160574692332E-01  8.258501588640E-01
  8.357603607703E-01  8.457894850996E-01  8.559389589208E-01  8.662102264278E-01
  8.766047491450E-01  8.871240061347E-01  8.977694942083E-01  9.085427281388E-01
  9.194452408765E-01  9.304785837670E-01  9.416443267722E-01  9.529440586935E-01
  9.643793873978E-01  9.759519400466E-01  9.876633633271E-01  9.995153236871E-01
  1.011509507571E+00  1.023647621662E+00  1.035931393122E+00  1.048362569840E+00
  1.060942920678E+00  1.073674235726E+00  1.086558326554E+00  1.099597026473E+00
  1.112792190791E+00  1.126145697080E+00  1.139659445445E+00  1.153335358791E+00
  1.167175383096E+00  1.181181487693E+00  1.195355665546E+00  1.209699933532E+00
  1.224216332735E+00  1.238906928727E+00  1.253773811872E+00  1.268819097615E+00
  1.284044926786E+00  1.299453465907E+00  1.315046907498E+00  1.330827470388E+00
  1.346797400033E+00  1.362958968833E+00  1.379314476459E+00  1.395866250177E+00
  1.412616645179E+00  1.429568044921E+00  1.446722861460E+00  1.464083535798E+00
  1.481652538227E+00  1.499432368686E+00  1.517425557110E+00  1.535634663795E+00
  1.554062279761E+00  1.572711027118E+00  1.591583559444E+00  1.610682562157E+00
  1.630010752903E+00  1.649570881938E+00  1.669365732521E+00  1.689398121311E+00
  1.709670898767E+00  1.730186949552E+00  1.750949192947E+00  1.771960583262E+00
  1.793224110261E+00  1.814742799584E+00  1.836519713179E+00  1.858557949737E+00
  1.880860645134E+00  1.903430972876E+00  1.926272144550E+00  1.949387410285E+00
  1.972780059208E+00  1.996453419919E+00  2.020410860958E+00  2.044655791289E+00
  2.069191660785E+00  2.094021960714E+00  2.119150224243E+00  2.144580026934E+00
  2.170314987257E+00  2.196358767104E+00  2.222715072309E+00  2.249387653177E+00
  2.276380305015E+00  2.303696868675E+00  2.331341231099E+00  2.359317325873E+00
  2.387629133783E+00  2.416280683389E+00  2.445276051589E+00  2.474619364208E+00
  2.504314796579E+00  2.534366574138E+00  2.564778973027E+00  2.595556320704E+00
  2.626702996552E+00  2.658223432511E+00  2.690122113701E+00  2.722403579065E+00
  2.755072422014E+00  2.788133291078E+00  2.821590890571E+00  2.855449981258E+00
  2.889715381033E+00  2.924391965606E+00  2.959484669193E+00  2.994998485223E+00
  3.030938467046E+00  3.067309728650E+00  3.104117445394E+00  3.141366854739E+00
  3.179063256996E+00  3.217212016080E+00  3.255818560273E+00  3.294888382996E+00
  3.334427043592E+00  3.374440168115E+00  3.414933450132E+00  3.455912651534E+00
  3.497383603352E+00  3.539352206593E+00  3.581824433072E+00  3.624806326269E+00
  3.668304002184E+00  3.712323650210E+00  3.756871534013E+00  3.801953992421E+00
  3.847577440330E+00  3.893748369614E+00  3.940473350049E+00  3.987759030250E+00
  4.035612138613E+00  4.084039484276E+00  4.133047958087E+00  4.182644533584E+00
  4.232836267987E+00  4.283630303203E+00  4.335033866842E+00  4.387054273244E+00
  4.439698924523E+00  4.492975311617E+00  4.546891015356E+00  4.601453707541E+00
  4.656671152031E+00  4.712551205855E+00  4.769101820326E+00  4.826331042170E+00
  4.884247014676E+00  4.942857978852E+00  5.002172274598E+00  5.062198341893E+00
  5.122944721996E+00  5.184420058660E+00  5.246633099364E+00  5.309592696556E+00
  5.373307808915E+00  5.437787502622E+00  5.503040952653E+00  5.569077444085E+00
  5.635906373414E+00  5.703537249895E+00  5.771979696894E+00  5.841243453257E+00
  5.911338374696E+00  5.982274435192E+00  6.054061728414E+00  6.126710469155E+00
  6.200230994785E+00  6.274633766723E+00  6.349929371923E+00  6.426128524386E+00
  6.503242066679E+00  6.581280971479E+00  6.660256343137E+00  6.740179419254E+00
  6.821061572286E+00  6.902914311153E+00  6.985749282887E+00  7.069578274281E+00
  7.154413213573E+00  7.240266172136E+00  7.327149366201E+00  7.415075158596E+00
  7.504056060499E+00  7.594104733225E+00  7.685233990024E+00  7.777456797904E+00
  7.870786279479E+00  7.965235714832E+00  8.060818543410E+00  8.157548365931E+00
  8.255438946323E+00  8.354504213678E+00  8.454758264243E+00  8.556215363413E+00
  8.658889947774E+00  8.762796627148E+00  8.867950186673E+00  8.974365588914E+00
  9.082057975981E+00  9.191042671692E+00  9.301335183753E+00  9.412951205958E+00
  9.525906620429E+00  9.640217499874E+00  9.755900109873E+00  9.872970911191E+00
  9.991446562126E+00  1.011134392087E+01  1.023268004792E+01  1.035547220850E+01
  1.047973787500E+01  1.060549472950E+01  1.073276066625E+01  1.086155379425E+01
  1.099189243978E+01  1.112379514906E+01  1.125728069084E+01  1.139236805913E+01
  1.152907647584E+01  1.166742539355E+01  1.180743449828E+01  1.194912371226E+01
  1.209251319680E+01  1.223762335517E+01  1.238447483543E+01  1.253308853345E+01
  1.268348559585E+01  1.283568742300E+01  1.298971567208E+01  1.314559226014E+01
  1.330333936727E+01  1.346297943967E+01  1.362453519295E+01  1.378802961527E+01
  1.395348597065E+01  1.412092780230E+01  1.429037893592E+01  1.446186348315E+01
  1.463540584495E+01  1.481103071509E+01  1.498876308367E+01  1.516862824068E+01
  1.535065177957E+01  1.553485960092E+01  1.572127791613E+01  1.590993325112E+01
  1.610085245014E+01  1.629406267954E+01  1.648959143169E+01  1.668746652887E+01
  1.688771612722E+01  1.709036872075E+01  1.729545314540E+01  1.750299858314E+01
  1.771303456614E+01  1.792559098093E+01  1.814069807270E+01  1.835838644958E+01
  1.857868708697E+01  1.880163133202E+01  1.902725090800E+01  1.925557791890E+01
  1.948664485392E+01  1.972048459217E+01  1.995713040728E+01  2.019661597216E+01
  2.043897536383E+01  2.068424306819E+01  2.093245398501E+01  2.118364343283E+01
  2.143784715403E+01  2.169510131988E+01  2.195544253571E+01  2.221890784614E+01
  2.248553474030E+01  2.275536115718E+01  2.302842549107E+01  2.330476659696E+01
  2.358442379612E+01  2.386743688168E+01  2.415384612426E+01  2.444369227775E+01
  2.473701658508E+01  2.503386078410E+01  2.533426711351E+01  2.563827831887E+01
  2.594593765870E+01  2.625728891060E+01  2.657237637753E+01  2.689124489406E+01
  2.721393983279E+01  2.754050711078E+01  2.787099319611E+01  2.820544511447E+01
  2.854391045584E+01  2.888643738131E+01  2.923307462988E+01  2.958387152544E+01
  2.993887798375E+01  3.029814451955E+01  3.066172225379E+01  3.102966292083E+01
  3.140201887588E+01  3.177884310239E+01  3.216018921962E+01  3.254611149026E+01
  3.293666482814E+01  3.333190480608E+01  3.373188766375E+01  3.413667031572E+01
  3.454631035951E+01  3.496086608382E+01  3.538039647683E+01  3.580496123455E+01
  3.623462076936E+01  3.666943621859E+01  3.710946945322E+01  3.755478308666E+01
  3.800544048370E+01  3.846150576950E+01  3.892304383873E+01  3.939012036480E+01
  3.986280180918E+01  4.034115543089E+01  4.082524929606E+01  4.131515228761E+01
  4.181093411506E+01  4.231266532444E+01  4.282041730834E+01  4.333426231604E+01
  4.385427346383E+01  4.438052474539E+01
</grid-data>
</grid>
<valence-charge total-charge="9" is-unscreening-charge="yes"
 rescaled-to-z-pseudo="no">
<radfunc>
<data npts="458">
  6.468351760391E-02  6.518245039418E-02  6.672219461416E-02  6.927161974794E-02
  7.281764995983E-02  7.748288162987E-02  8.343290501962E-02  9.025203812880E-02
  9.792686676826E-02  1.068868730001E-01  1.169991513930E-01  1.280058865448E-01
  1.413294994239E-01  1.552695236629E-01  1.692205777788E-01  1.853215240296E-01
  2.039038980181E-01  2.215590844906E-01  2.414544595378E-01  2.638742552902E-01
  2.891386148613E-01  3.116389581633E-01  3.363948547876E-01  3.636317935545E-01
  3.935974759725E-01  4.265638720767E-01  4.628294185158E-01  4.923893473715E-01
  5.241379502145E-01  5.582351880592E-01  5.948521252689E-01  6.341715494751E-01
  6.763885879065E-01  7.217113086428E-01  7.703612921114E-01  8.225741542773E-01
  8.785999983233E-01  9.387037660549E-01  9.811761053672E-01  1.025671679856E+00
  1.072280148676E+00  1.121094094425E+00  1.172208952685E+00  1.225722909375E+00
  1.281736760841E+00  1.340353731111E+00  1.401679240056E+00  1.465820615576E+00
  1.532886742214E+00  1.602987637889E+00  1.676233949667E+00  1.752736358747E+00
  1.832604884078E+00  1.915948073280E+00  2.002872068877E+00  2.093479537217E+00
  2.187868446995E+00  2.286130683932E+00  2.388350488075E+00  2.494602700312E+00
  2.604950805218E+00  2.719444758275E+00  2.838118586955E+00  2.960987757218E+00
  3.088046299812E+00  3.219263694370E+00  3.354581513956E+00  3.423751315880E+00
  3.493909838410E+00  3.565040296775E+00  3.637123451787E+00  3.710137480954E+00
  3.784057847394E+00  3.858857166908E+00  3.934505073643E+00  4.010968084810E+00
  4.088209464970E+00  4.166189090480E+00  4.244863314736E+00  4.324184834915E+00
  4.404102560986E+00  4.484561487823E+00  4.565502571320E+00  4.646862609486E+00
  4.728574129548E+00  4.810565282189E+00  4.892759744074E+00  4.975076629937E+00
  5.057430415523E+00  5.139730872750E+00  5.221883018550E+00  5.303787078833E+00
  5.385338469146E+00  5.466427793554E+00  5.546940863383E+00  5.626758737417E+00
  5.705757785197E+00  5.783809775046E+00  5.860781988433E+00  5.936537362252E+00
  6.010934660562E+00  6.083828677236E+00  6.155070470911E+00  6.224507633508E+00
  6.291984593462E+00  6.357342954664E+00  6.420421871928E+00  6.481058463603E+00
  6.539088261738E+00  6.594345699925E+00  6.646664638736E+00  6.695878928298E+00
  6.741823007294E+00  6.784332537301E+00  6.823245071033E+00  6.858400752658E+00
  6.889643047980E+00  6.916819501865E+00  6.939782519845E+00  6.958390170446E+00
  6.972507004311E+00  6.982004885800E+00  6.986763832282E+00  6.986672855954E+00
  6.981630802594E+00  6.971547181283E+00  6.956342978779E+00  6.935951451884E+00
  6.910318890872E+00  6.879405346768E+00  6.843185315113E+00  6.801648368634E+00
  6.754799731211E+00  6.702660785456E+00  6.645269506286E+00  6.582680812992E+00
  6.514966832478E+00  6.442217066674E+00  6.364538457467E+00  6.282055342995E+00
  6.194909299748E+00  6.103258865573E+00  6.007279139555E+00  5.907161255613E+00
  5.803111727772E+00  5.695351666184E+00  5.584115864355E+00  5.469651759385E+00
  5.352218268633E+00  5.232084507833E+00  5.109528397467E+00  4.984835166085E+00
  4.858295761181E+00  4.730205180087E+00  4.600860735144E+00  4.470560269305E+00
  4.339600339992E+00  4.208274390641E+00  4.076870930709E+00  3.945671746042E+00
  3.814950162309E+00  3.684969384629E+00  3.555980936552E+00  3.428223221112E+00
  3.301920225772E+00  3.177280391623E+00  3.054495814443E+00  2.933742264629E+00
  2.815179741138E+00  2.698952210290E+00  2.585187011252E+00  2.473994770404E+00
  2.365469665724E+00  2.259691246728E+00  2.156727192152E+00  2.056634156881E+00
  1.959457709738E+00  1.865232984698E+00  1.773985100602E+00  1.685729637465E+00
  1.600473121722E+00  1.518213520911E+00  1.438940745129E+00  1.362637151989E+00
  1.289278052556E+00  1.218832215657E+00  1.151262368234E+00  1.086525689531E+00
  1.024574297145E+00  9.653557231112E-01  9.088133784135E-01  8.548870044883E-01
  8.035131104193E-01  7.546253947552E-01  7.081551510181E-01  6.640316561322E-01
  6.221825411586E-01  5.825341438640E-01  5.450118427868E-01  5.095403725899E-01
  4.760441206066E-01  4.444474045916E-01  4.146747317836E-01  3.866510394750E-01
  3.603019173558E-01  3.355538119671E-01  3.123342136538E-01  2.905718264548E-01
  2.701967214050E-01  2.511404737606E-01  2.333362846795E-01  2.167190879133E-01
  2.012256420837E-01  1.867946091312E-01  1.733666195348E-01  1.608843249172E-01
  1.492924386570E-01  1.385377651431E-01  1.285692183161E-01  1.193378301520E-01
  1.107967497518E-01  1.029012337072E-01  9.560862841789E-02  8.887834503411E-02
  8.267182769634E-02  7.695251573110E-02  7.168580044763E-02  6.683897715623E-02
  6.238119299897E-02  5.828339114748E-02  5.451825188037E-02  5.106013100780E-02
  4.788499606525E-02  4.497036065707E-02  4.229521729919E-02  3.983996909590E-02
  3.758636059570E-02  3.551740821259E-02  3.361733067389E-02  3.187148006084E-02
  3.026627412862E-02  2.878913069970E-02  2.742840498033E-02  2.617333060874E-02
  2.501396507346E-02  2.394113983463E-02  2.294641507994E-02  2.202203862690E-02
  2.116090814545E-02  2.035653570077E-02  1.960301364243E-02  1.889498106626E-02
  1.822759037856E-02  1.759647381112E-02  1.699770999948E-02  1.642779090789E-02
  1.588358945811E-02  1.536232821510E-02  1.486154942730E-02  1.437908664133E-02
  1.391303802834E-02  1.346174148658E-02  1.302375152542E-02  1.259781789314E-02
  1.218286588105E-02  1.177797821847E-02  1.138237846389E-02  1.099541579367E-02
  1.061655109066E-02  1.024534423797E-02  9.881442527315E-03  9.524570096794E-03
  9.174518317763E-03  8.831137055459E-03  8.494326732641E-03  8.164031129487E-03
  7.840230856629E-03  7.522937441271E-03  7.212187969155E-03  6.908040227637E-03
  6.610568297658E-03  6.319858545028E-03  6.036005964533E-03  5.759110834089E-03
  5.489275640722E-03  5.226602245718E-03  4.971189262846E-03  4.723129630937E-03
  4.482508370044E-03  4.249400518418E-03  4.023869254940E-03  3.805964217933E-03
  3.595720035732E-03  3.393155086634E-03  3.198270505667E-03  3.011049453052E-03
  2.831456654612E-03  2.659438218206E-03  2.494921724494E-03  2.337816576240E-03
  2.188014597874E-03  2.045390856194E-03  1.909804675895E-03  1.781100818992E-03
  1.659110795362E-03  1.543654271194E-03  1.434540542936E-03  1.331570046108E-03
  1.234535870856E-03  1.143225259187E-03  1.057421062142E-03  9.769031386396E-04
  9.014496811572E-04  8.308384567194E-04  7.648479547412E-04  7.032584360799E-04
  6.458528801468E-04  5.924178291113E-04  5.427441300881E-04  4.966275777502E-04
  4.538694610711E-04  4.142770188947E-04  3.776638097780E-04  3.438500020920E-04
  3.126625907036E-04  2.839355467452E-04  2.575099070127E-04  2.332338094519E-04
  2.109624810126E-04  1.905581838866E-04  1.718901258236E-04  1.548343398441E-04
  1.392735382645E-04  1.250969455190E-04  1.122001138295E-04  1.004847253371E-04
  8.985838388354E-05  8.023439922325E-05  7.153156606636E-05  6.367393999757E-05
  5.659061199918E-05  5.021548302289E-05  4.448703980867E-05  3.934813293897E-05
  3.474575794032E-05  3.063084010035E-05  2.695802355135E-05  2.368546508012E-05
  2.077463305122E-05  1.819011177526E-05  1.589941160958E-05  1.387278504396E-05
  1.208304899377E-05  1.050541349708E-05  9.117316986223E-06  7.898268279395E-06
  6.829695410468E-06  5.894801387435E-06  5.078426939617E-06  4.366920282453E-06
  3.748013896161E-06  3.210708281588E-06  2.745162623655E-06  2.342592260699E-06
  1.995172827268E-06  1.695950909104E-06  1.438761022684E-06  1.218148708098E-06
  1.029299503600E-06  8.679735529326E-07  7.304455827507E-07  6.134499770017E-07
  5.141306679727E-07  4.299955597160E-07  3.588751985073E-07  2.988854066465E-07
  2.483935999995E-07  2.059885159222E-07  1.704530862878E-07  1.407401999823E-07
  1.159511101217E-07  9.531625312577E-08  7.817825936595E-08  6.397694817636E-08
  5.223611335330E-08  4.255191863723E-08  3.458273597478E-08  2.804027238563E-08
  2.268184392562E-08  1.830366743273E-08  1.473505239190E-08  1.183338629931E-08
  9.479817305733E-09  7.575547647503E-09  6.038660419587E-09  4.801410609044E-09
  3.807918997277E-09  3.012214574184E-09  2.376577509985E-09  1.870140530090E-09
  1.467711767425E-09  1.148786859983E-09  8.967222555629E-10  6.980454178746E-10
  5.418809353871E-10  4.194744530845E-10  3.237989128501E-10  2.492298344927E-10
  1.912783285184E-10  1.463722338275E-10  1.116772467055E-10  8.495117776038E-11
  6.442556473075E-11  4.870980308816E-11  3.671375283530E-11  2.758545660420E-11
  2.066117701197E-11  1.542544440263E-11  1.147921215355E-11  8.514556722453E-12
  6.294643266309E-12  4.637913451268E-12  3.405647356208E-12  2.492212517358E-12
  1.817445647778E-12  1.320721088363E-12  9.563486116293E-13  6.900152073516E-13
  4.960438061028E-13  3.552889642505E-13  2.535273714628E-13  1.802313431866E-13
  1.276376335055E-13  9.004311301395E-14  6.327406148598E-14  4.428781339529E-14
  3.087490878530E-14  2.143726555014E-14  1.482362535318E-14  1.020797560302E-14
  7.000088200014E-15  4.779961197086E-15  3.249976366725E-15  2.200131986564E-15
  1.482884815116E-15  9.950236932291E-16  6.646662632469E-16  4.419719028672E-16
  2.925383541609E-16  1.927276905151E-16  1.263730013392E-16  8.246863139383E-17
  5.355780251527E-17  3.461233952351E-17  0.000000000000E+00  0.000000000000E+00
  0.000000000000E+00  0.000000000000E+00
</data>
</radfunc>
</valence-charge>
<pseudocore-charge matching-radius="0.674267992333"
 number-of-continuous-derivatives="4">
<annotation model-charge-form="Teter function with specified parameters" />
<radfunc>
<data npts="257">
  3.516102108196E+01  3.515789485408E+01  3.514824889368E+01  3.513228366130E+01
  3.511008988157E+01  3.508091335818E+01  3.504373801916E+01  3.500118246467E+01
  3.495335040863E+01  3.489759353898E+01  3.483477553253E+01  3.476653218922E+01
  3.468410563463E+01  3.459807742320E+01  3.451219651156E+01  3.441334704951E+01
  3.429961463479E+01  3.419190294559E+01  3.407092452754E+01  3.393509932857E+01
  3.378267361717E+01  3.364748202360E+01  3.349933884663E+01  3.333706754831E+01
  3.315939818555E+01  3.296496289789E+01  3.275229186789E+01  3.257987788494E+01
  3.239561829669E+01  3.219877446399E+01  3.198857325786E+01  3.176420733321E+01
  3.152483579206E+01  3.126958530696E+01  3.099755178393E+01  3.070780265313E+01
  3.039937988482E+01  3.007130383756E+01  2.984117642989E+01  2.960157336549E+01
  2.935219513814E+01  2.909274197670E+01  2.882291498425E+01  2.854241740839E+01
  2.825095605156E+01  2.794824282992E+01  2.763399648955E+01  2.730794448828E+01
  2.696982505125E+01  2.661938940754E+01  2.625640421469E+01  2.588065417653E+01
  2.549194485906E+01  2.509010570679E+01  2.467499326061E+01  2.424649457563E+01
  2.380453083469E+01  2.334906115007E+01  2.288008654218E+01  2.239765407967E+01
  2.190186116055E+01  2.139285990842E+01  2.087086165187E+01  2.033614144815E+01
  1.978904260512E+01  1.922998114718E+01  1.865945016255E+01  1.837005978809E+01
  1.807802396010E+01  1.778342779562E+01  1.748636195455E+01  1.718692273975E+01
  1.688521218904E+01  1.658133815828E+01  1.627541439463E+01  1.596756059892E+01
  1.565790247639E+01  1.534657177449E+01  1.503370630696E+01  1.471944996293E+01
  1.440395270006E+01  1.408737052065E+01  1.376986542945E+01  1.345160537220E+01
  1.313276415375E+01  1.281352133450E+01  1.249406210433E+01  1.217457713260E+01
  1.185526239352E+01  1.153631896553E+01  1.121795280400E+01  1.090037448619E+01
  1.058379892772E+01  1.026844506969E+01  9.954535535980E+00  9.642296259968E+00
  9.331956080467E+00  9.023746306451E+00  8.717900250530E+00  8.414652731204E+00
  8.114239544154E+00  7.816896902992E+00  7.522860850163E+00  7.232366638882E+00
  6.945648087270E+00  6.662936906104E+00  6.384462001886E+00  6.110448757219E+00
  5.841118290796E+00  5.576686699606E+00  5.317364286308E+00  5.063354775022E+00
  4.814854519146E+00  4.572051705118E+00  4.335125556390E+00  4.104245542169E+00
  3.879570595838E+00  3.661248348209E+00  3.449414381068E+00  3.244191506710E+00
  3.045689079368E+00  2.854002344621E+00  2.669211833003E+00  2.491382804116E+00
  2.320564747573E+00  2.156790947079E+00  2.000078113835E+00  1.850426095302E+00
  1.707817665078E+00  1.572218399348E+00  1.443576644885E+00  1.321823583140E+00
  1.206873394272E+00  1.098623524344E+00  9.969550580542E-01  9.017331985384E-01
  8.128078547635E-01  7.300143360074E-01  6.531741517750E-01  5.820959143078E-01
  5.165763395981E-01  4.564013415271E-01  4.013472124399E-01  3.511818821517E-01
  3.056662460854E-01  2.645555519776E-01  2.276008334005E-01  1.945503772377E-01
  1.651512112643E-01  1.391505971378E-01  1.162975134287E-01  9.634411284405E-02
  7.904713753952E-02  6.416927640463E-02  5.148044845752E-02  4.075899701726E-02
  3.179278014321E-02  2.438014394788E-02  1.833076680002E-02  1.346636413032E-02
  9.621245516137E-03  6.642717930183E-03  4.391331457133E-03  2.740966371515E-03
  1.578763179520E-03  8.049000003406E-04  3.322244356495E-04  8.574978042312E-05
  2.027992384184E-06  2.841418724524E-05  1.222394897745E-04  2.499107768427E-04
  3.859571344242E-04  5.120436612319E-04  6.159735441039E-04  6.906990756103E-04
  7.333614704581E-04  7.443779706642E-04  7.265928366982E-04  6.845064500729E-04
  6.235939699066E-04  5.497218787709E-04  4.686674257855E-04  3.857425453773E-04
  3.055204259402E-04  2.316596557854E-04  1.668179147722E-04  1.126446314349E-04
  6.983999541910E-05  3.826629078327E-05  1.709675769280E-05  4.987127100200E-06
  2.555991044251E-07  1.058308205458E-06  5.549159043073E-06  1.201521276327E-05
  1.898141739372E-05  2.528124572558E-05  3.009256055824E-05  3.294059923279E-05
  3.367219842757E-05  3.240713091864E-05  2.947359718116E-05  2.533544780240E-05
  2.051859764449E-05  1.554337007244E-05  1.086826840219E-05  6.849043170999E-06
  3.715070557946E-06  1.563159436106E-06  3.671433080219E-07  1.536225217397E-10
  2.654446619054E-07  9.311324680684E-07  1.764249900280E-06  2.560075466541E-06
  3.163676313382E-06  3.481879316716E-06  3.485280339162E-06  3.201240629832E-06
  2.699932338363E-06  2.076246586748E-06  1.430683364984E-06  8.521819890974E-07
  4.052700514825E-07  1.230142310509E-07  6.199371767522E-09  0.000000000000E+00
  0.000000000000E+00  0.000000000000E+00  0.000000000000E+00  0.000000000000E+00
  0.000000000000E+00  0.000000000000E+00  0.000000000000E+00  0.000000000000E+00
  0.000000000000E+00  0.000000000000E+00  0.000000000000E+00  0.000000000000E+00
  0.000000000000E+00  0.000000000000E+00  0.000000000000E+00  0.000000000000E+00
  0.000000000000E+00  0.000000000000E+00  0.000000000000E+00  0.000000000000E+00
  0.000000000000E+00  0.000000000000E+00  0.000000000000E+00  0.000000000000E+00
  0.000000000000E+00  0.000000000000E+00  0.000000000000E+00  0.000000000000E+00
  0.000000000000E+00
</data>
</radfunc>
</pseudocore-charge>
<semilocal-potentials set="lj">
<slps n="3" l="s" j="0.5" rc="1.36295896883" eref="-1.29591107736">
<radfunc>
<data npts="257">
  5.327948175015E+01  5.324176810821E+01  5.312563817870E+01  5.293420821480E+01
  5.266969685912E+01  5.232476769409E+01  5.188982677633E+01  5.139809369592E+01
  5.085307863213E+01  5.022780735359E+01  4.953597489256E+01  4.879912610085E+01
  4.792894899188E+01  4.704306941626E+01  4.618061114106E+01  4.521396536340E+01
  4.413482840426E+01  4.314398237708E+01  4.206556385455E+01  4.089614591718E+01
  3.963310257815E+01  3.855412691694E+01  3.741388140527E+01  3.621263653729E+01
  3.495127910627E+01  3.363136370836E+01  3.225515355204E+01  3.118782850289E+01
  3.009205014686E+01  2.896959481118E+01  2.782246942114E+01  2.665290297838E+01
  2.546333427206E+01  2.425639587434E+01  2.303489458374E+01  2.180178859388E+01
  2.056016177593E+01  1.931319556436E+01  1.848052105404E+01  1.764788976004E+01
  1.681627774380E+01  1.598665995739E+01  1.516000611866E+01  1.433727666944E+01
  1.351941885748E+01  1.270736298019E+01  1.190201882626E+01  1.110427234788E+01
  1.031498259283E+01  9.534978921545E+00  8.765058530308E+00  8.005984296749E+00
  7.258482959503E+00  6.523243638938E+00  5.800916701237E+00  5.092112963504E+00
  4.397403233166E+00  3.717318170775E+00  3.052348461437E+00  2.402945276596E+00
  1.769521004704E+00  1.152450226581E+00  5.520709088706E-01 -3.131421293958E-02
 -5.974360920450E-01 -1.146057699638E+00 -1.676972258063E+00 -1.935732597903E+00
 -2.190001410211E+00 -2.439760535499E+00 -2.684993357619E+00 -2.925684746123E+00
 -3.161820999355E+00 -3.393389788534E+00 -3.620380103046E+00 -3.842782197140E+00
 -4.060587538310E+00 -4.273788757502E+00 -4.482379601331E+00 -4.686354886601E+00
 -4.885710457177E+00 -5.080443143415E+00 -5.270550724327E+00 -5.456031892558E+00
 -5.636886222327E+00 -5.813114140394E+00 -5.984716900156E+00 -6.151696558884E+00
 -6.314055958164E+00 -6.471798707502E+00 -6.624929171088E+00 -6.773452457638E+00
 -6.917374413215E+00 -7.056701616903E+00 -7.191441379137E+00 -7.321601742491E+00
 -7.447191484632E+00 -7.568220123160E+00 -7.684697921931E+00 -7.796635898481E+00
 -7.904045832060E+00 -8.006940271777E+00 -8.105332544259E+00 -8.199236760226E+00
 -8.288667819313E+00 -8.373641412430E+00 -8.454174020948E+00 -8.530282911964E+00
 -8.601986128908E+00 -8.669302476797E+00 -8.732251501451E+00 -8.790853462124E+00
 -8.845129297065E+00 -8.895100581719E+00 -8.940789479464E+00 -8.982218685035E+00
 -9.019411361098E+00 -9.052391068779E+00 -9.081181693399E+00 -9.105807367116E+00
 -9.126292390713E+00 -9.142661157351E+00 -9.154938081726E+00 -9.163147538740E+00
 -9.167313816457E+00 -9.167461088842E+00 -9.163613414465E+00 -9.155794768025E+00
 -9.144029112196E+00 -9.128340517879E+00 -9.108753341419E+00 -9.085292467749E+00
 -9.057983628624E+00 -9.026853805173E+00 -8.991931723827E+00 -8.953248454202E+00
 -8.910838116796E+00 -8.864738707174E+00 -8.814993041786E+00 -8.761649828467E+00
 -8.704764862068E+00 -8.644402342420E+00 -8.580636307937E+00 -8.513552173516E+00
 -8.443248355987E+00 -8.369837964229E+00 -8.293450524036E+00 -8.214233700189E+00
 -8.132354969761E+00 -8.048003191959E+00 -7.961390010653E+00 -7.872751016220E+00
 -7.782346584030E+00 -7.690462299005E+00 -7.597408868961E+00 -7.503521424284E+00
 -7.409158099221E+00 -7.314697791313E+00 -7.220537001126E+00 -7.127085665044E+00
 -7.034761910461E+00 -6.943985685504E+00 -6.855171251613E+00 -6.768718469257E+00
 -6.685002984638E+00 -6.604367171814E+00 -6.525898415830E+00 -6.448323800890E+00
 -6.371682301467E+00 -6.295958576905E+00 -6.221136898069E+00 -6.147204667782E+00
 -6.074161325986E+00 -6.002013341098E+00 -5.930755267884E+00 -5.860372211935E+00
 -5.790851643150E+00 -5.722181185148E+00 -5.654346992000E+00 -5.587335216615E+00
 -5.521131790081E+00 -5.455722673048E+00 -5.391094034332E+00 -5.327232431303E+00
 -5.264124977441E+00 -5.201759489134E+00 -5.140124604156E+00 -5.079209864768E+00