<?xml version="1.0" encoding="UTF-8" ?>
<psml version="1.1" energy_unit="hartree" length_unit="bohr"
 uuid="d634de40-539d-11e8-758a-c67e9ef36431"
 xmlns="http://esl.cecam.org/PSML/ns/1.1">
<provenance creator="ONCVPSP-3.3.0+psml-3.3.0-73 (fully-relativistic)"
 date="2018-05-09">
<annotation action="semilocal-pseudopotential-generation"
 action-cont="projectors-generation" />
<input-file name="oncvpsp-input">
<![CDATA[# atsym z nc nv iexc psfile
Be 4 0 2 -116133 upf
# n l f
1 0 2.0
2 0 2.0
# lmax
1
# l rc ep ncon nbas qcut
0 1.35 0.0 4 8 9.2
1 1.1 0.0 4 8 9.4
# lloc lpopt rc5 dvloc0
4 5 0.95 0.0
# l nproj debl
0 2 1.0
1 2 1.0
# icmod fcfact
0 0.25
# epsh1 epsh2 depsh
-12.0 12.0 0.02
# rlmax drl
4.0 0.01
 0
]]>
</input-file>
</provenance>
<pseudo-atom-spec atomic-label="Be" atomic-number="4" z-pseudo="4"
 flavor="Hamann&apos;s oncvpsp" relativity="dirac" spin-dft="no"
 core-corrections="no">
<annotation pseudo-energy="-13.7368397224" />
<exchange-correlation>
<annotation oncvpsp-xc-code="-116133" oncvpsp-xc-type="libxc-interface" />
<libxc-info number-of-functionals="2">
<functional name="Perdew, Burke &amp; Ernzerhof SOL (GGA)" type="exchange"
 id="116" />
<functional name="Perdew, Burke &amp; Ernzerhof SOL (GGA)" type="correlation"
 id="133" />
</libxc-info>
</exchange-correlation>
<valence-configuration total-valence-charge="4">
<shell n="1" l="s" occupation="2" />
<shell n="2" l="s" occupation="2" />
</valence-configuration>
</pseudo-atom-spec>
<grid npts="457">
<annotation type="sampled from oncvpsp log grid"
 recipe="r(i:1..N) = r1*exp(a*(i-1)) + r=0; resampled"
 recipe-cont="r1: scale; a: step" scale="0.125000000000E-03"
 step="0.119285708653E-01" delta="0.500000000000E-02" rmax="44.1813421228" />
<grid-data>
  0.000000000000E+00  5.045089664318E-03  1.007717068006E-02  1.511736293017E-02
  2.012835760545E-02  2.524864506191E-02  3.055809503800E-02  3.568395144868E-02
  4.068727247651E-02  4.584201536434E-02  5.103737331347E-02  5.614775742254E-02
  6.176984548592E-02  6.714908551389E-02  7.299677779476E-02  7.841276441878E-02
  8.423058948002E-02  8.940718115625E-02  9.490191261456E-02  1.007343358937E-01
  1.069252046495E-01  1.121507391337E-01  1.176316503622E-01  1.233804188347E-01
  1.294101349845E-01  1.357345289867E-01  1.423680020228E-01  1.475549990844E-01
  1.529309777861E-01  1.585028234335E-01  1.642776721897E-01  1.702629202147E-01
  1.764662331383E-01  1.828955558777E-01  1.895591228129E-01  1.964654683334E-01
  2.036234377681E-01  2.110421987141E-01  2.161376015599E-01  2.213560278119E-01
  2.267004477474E-01  2.321739033578E-01  2.377795100805E-01  2.435204585719E-01
  2.494000165237E-01  2.554215305226E-01  2.615884279555E-01  2.679042189601E-01
  2.743724984227E-01  2.809969480246E-01  2.877813383377E-01  2.947295309705E-01
  3.018454807663E-01  3.091332380539E-01  3.165969509535E-01  3.242408677373E-01
  3.320693392479E-01  3.400868213747E-01  3.482978775900E-01  3.567071815465E-01
  3.653195197378E-01  3.741397942224E-01  3.831730254141E-01  3.924243549397E-01
  4.018990485653E-01  4.116024991939E-01  4.215402299344E-01  4.265987126936E-01
  4.317178972460E-01  4.368985120129E-01  4.421412941571E-01  4.474469896869E-01
  4.528163535632E-01  4.582501498060E-01  4.637491516036E-01  4.693141414229E-01
  4.749459111199E-01  4.806452620534E-01  4.864130051980E-01  4.922499612604E-01
  4.981569607955E-01  5.041348443251E-01  5.101844624570E-01  5.163066760065E-01
  5.225023561185E-01  5.287723843920E-01  5.351176530047E-01  5.415390648407E-01
  5.480375336188E-01  5.546139840222E-01  5.612693518305E-01  5.680045840525E-01
  5.748206390611E-01  5.817184867298E-01  5.886991085706E-01  5.957634978734E-01
  6.029126598479E-01  6.101476117661E-01  6.174693831073E-01  6.248790157046E-01
  6.323775638930E-01  6.399660946597E-01  6.476456877956E-01  6.554174360492E-01
  6.632824452818E-01  6.712418346252E-01  6.792967366407E-01  6.874482974804E-01
  6.956976770501E-01  7.040460491747E-01  7.124946017648E-01  7.210445369860E-01
  7.296970714298E-01  7.384534362870E-01  7.473148775224E-01  7.562826560527E-01
  7.653580479253E-01  7.745423445004E-01  7.838368526344E-01  7.932428948661E-01
  8.027618096044E-01  8.123949513197E-01  8.221436907355E-01  8.320094150244E-01
  8.419935280047E-01  8.520974503407E-01  8.623226197448E-01  8.726704911817E-01
  8.831425370759E-01  8.937402475208E-01  9.044651304911E-01  9.153187120570E-01
  9.263025366017E-01  9.374181670409E-01  9.486671850454E-01  9.600511912659E-01
  9.715718055611E-01  9.832306672278E-01  9.950294352346E-01  1.006969788457E+00
  1.019053425919E+00  1.031282067030E+00  1.043657451834E+00  1.056181341256E+00
  1.068855517351E+00  1.081681783560E+00  1.094661964962E+00  1.107797908542E+00
  1.121091483444E+00  1.134544581246E+00  1.148159116221E+00  1.161937025615E+00
  1.175880269923E+00  1.189990833162E+00  1.204270723160E+00  1.218721971838E+00
  1.233346635500E+00  1.248146795126E+00  1.263124556667E+00  1.278282051347E+00
  1.293621435963E+00  1.309144893195E+00  1.324854631913E+00  1.340752887496E+00
  1.356841922146E+00  1.373124025212E+00  1.389601513514E+00  1.406276731677E+00
  1.423152052457E+00  1.440229877086E+00  1.457512635611E+00  1.475002787239E+00
  1.492702820685E+00  1.510615254534E+00  1.528742637588E+00  1.547087549239E+00
  1.565652599830E+00  1.584440431028E+00  1.603453716200E+00  1.622695160795E+00
  1.642167502724E+00  1.661873512757E+00  1.681815994910E+00  1.701997786849E+00
  1.722421760291E+00  1.743090821415E+00  1.764007911272E+00  1.785176006207E+00
  1.806598118281E+00  1.828277295701E+00  1.850216623249E+00  1.872419222728E+00
  1.894888253401E+00  1.917626912442E+00  1.940638435391E+00  1.963926096616E+00
  1.987493209775E+00  2.011343128292E+00  2.035479245832E+00  2.059904996782E+00
  2.084623856743E+00  2.109639343024E+00  2.134955015140E+00  2.160574475322E+00
  2.186501369026E+00  2.212739385454E+00  2.239292258080E+00  2.266163765177E+00
  2.293357730359E+00  2.320878023123E+00  2.348728559401E+00  2.376913302113E+00
  2.405436261739E+00  2.434301496880E+00  2.463513114842E+00  2.493075272220E+00
  2.522992175487E+00  2.553268081593E+00  2.583907298572E+00  2.614914186155E+00
  2.646293156389E+00  2.678048674265E+00  2.710185258356E+00  2.742707481457E+00
  2.775619971234E+00  2.808927410889E+00  2.842634539820E+00  2.876746154297E+00
  2.911267108149E+00  2.946202313447E+00  2.981556741208E+00  3.017335422103E+00
  3.053543447168E+00  3.090185968534E+00  3.127268200156E+00  3.164795418558E+00
  3.202772963581E+00  3.241206239144E+00  3.280100714014E+00  3.319461922582E+00
  3.359295465653E+00  3.399607011241E+00  3.440402295375E+00  3.481687122920E+00
  3.523467368395E+00  3.565748976816E+00  3.608537964538E+00  3.651840420112E+00
  3.695662505153E+00  3.740010455215E+00  3.784890580678E+00  3.830309267646E+00
  3.876272978858E+00  3.922788254604E+00  3.969861713659E+00  4.017500054223E+00
  4.065710054874E+00  4.114498575532E+00  4.163872558439E+00  4.213839029140E+00
  4.264405097490E+00  4.315577958659E+00  4.367364894163E+00  4.419773272893E+00
  4.472810552168E+00  4.526484278794E+00  4.580802090140E+00  4.635771715221E+00
  4.691400975804E+00  4.747697787514E+00  4.804670160964E+00  4.862326202895E+00
  4.920674117330E+00  4.979722206738E+00  5.039478873219E+00  5.099952619697E+00
  5.161152051134E+00  5.223085875747E+00  5.285762906256E+00  5.349192061131E+00
  5.413382365865E+00  5.478342954255E+00  5.544083069706E+00  5.610612066543E+00
  5.677939411341E+00  5.746074684278E+00  5.815027580489E+00  5.884807911455E+00
  5.955425606392E+00  6.026890713669E+00  6.099213402233E+00  6.172403963060E+00
  6.246472810616E+00  6.321430484344E+00  6.397287650156E+00  6.474055101958E+00
  6.551743763181E+00  6.630364688340E+00  6.709929064600E+00  6.790448213375E+00
  6.871933591935E+00  6.954396795039E+00  7.037849556579E+00  7.122303751258E+00
  7.207771396273E+00  7.294264653028E+00  7.381795828865E+00  7.470377378811E+00
  7.560021907357E+00  7.650742170245E+00  7.742551076288E+00  7.835461689203E+00
  7.929487229474E+00  8.024641076228E+00  8.120936769142E+00  8.218388010372E+00
  8.317008666496E+00  8.416812770494E+00  8.517814523740E+00  8.620028298025E+00
  8.723468637602E+00  8.828150261253E+00  8.934088064388E+00  9.041297121160E+00
  9.149792686614E+00  9.259590198854E+00  9.370705281240E+00  9.483153744615E+00
  9.596951589550E+00  9.712115008625E+00  9.828660388728E+00  9.946604313393E+00
  1.006596356515E+01  1.018675512794E+01  1.030899618947E+01  1.043270414374E+01
  1.055789659347E+01  1.068459135259E+01  1.081280644882E+01  1.094256012621E+01
  1.107387084772E+01  1.120675729790E+01  1.134123838547E+01  1.147733324610E+01
  1.161506124505E+01  1.175444197999E+01  1.189549528375E+01  1.203824122715E+01
  1.218270012188E+01  1.232889252334E+01  1.247683923362E+01  1.262656130443E+01
  1.277808004008E+01  1.293141700056E+01  1.308659400457E+01  1.324363313262E+01
  1.340255673021E+01  1.356338741098E+01  1.372614805991E+01  1.389086183663E+01
  1.405755217867E+01  1.422624280481E+01  1.439695771847E+01  1.456972121109E+01
  1.474455786562E+01  1.492149256001E+01  1.510055047073E+01  1.528175707638E+01
  1.546513816130E+01  1.565071981923E+01  1.583852845706E+01  1.602859079855E+01
  1.622093388813E+01  1.641558509479E+01  1.661257211592E+01  1.681192298131E+01
  1.701366605709E+01  1.721783004978E+01  1.742444401037E+01  1.763353733850E+01
  1.784513978656E+01  1.805928146400E+01  1.827599284157E+01  1.849530475566E+01
  1.871724841273E+01  1.894185539369E+01  1.916915765841E+01  1.939918755031E+01
  1.963197780091E+01  1.986756153453E+01  2.010597227294E+01  2.034724394022E+01
  2.059141086750E+01  2.083850779791E+01  2.108856989148E+01  2.134163273018E+01
  2.159773232294E+01  2.185690511082E+01  2.211918797215E+01  2.238461822781E+01
  2.265323364655E+01  2.292507245031E+01  2.320017331971E+01  2.347857539955E+01
  2.376031830434E+01  2.404544212399E+01  2.433398742948E+01  2.462599527863E+01
  2.492150722198E+01  2.522056530864E+01  2.552321209235E+01  2.582949063745E+01
  2.613944452510E+01  2.645311785940E+01  2.677055527372E+01  2.709180193700E+01
  2.741690356025E+01  2.774590640297E+01  2.807885727980E+01  2.841580356716E+01
  2.875679320997E+01  2.910187472849E+01  2.945109722523E+01  2.980451039193E+01
  3.016216451664E+01  3.052411049083E+01  3.089039981672E+01  3.126108461453E+01
  3.163621762990E+01  3.201585224146E+01  3.240004246836E+01  3.278884297798E+01
  3.318230909371E+01  3.358049680284E+01  3.398346276447E+01  3.439126431764E+01
  3.480395948946E+01  3.522160700333E+01  3.564426628737E+01  3.607199748282E+01
  3.650486145261E+01  3.694291979004E+01  3.738623482752E+01  3.783486964545E+01
  3.828888808120E+01  3.874835473817E+01  3.921333499503E+01  3.968389501497E+01
  4.016010175515E+01  4.064202297621E+01  4.112972725193E+01  4.162328397895E+01
  4.212276338670E+01  4.262823654734E+01  4.313977538591E+01  4.365745269054E+01
  4.418134212282E+01
</grid-data>
</grid>
<valence-charge total-charge="4" is-unscreening-charge="yes"
 rescaled-to-z-pseudo="no">
<radfunc>
<data npts="457">
  5.990215249937E+01  5.989334581937E+01  5.986702411287E+01  5.982312569698E+01
  5.976212354171E+01  5.968196824256E+01  5.957990357764E+01  5.946315756001E+01
  5.933205080828E+01  5.917937559004E+01  5.900756311507E+01  5.882114946948E+01
  5.859632298309E+01  5.836205796100E+01  5.808642139417E+01  5.781191903169E+01
  5.749678414358E+01  5.719901984795E+01  5.686537892897E+01  5.649180038841E+01
  5.607383350049E+01  5.570424947174E+01  5.530047430433E+01  5.485965203909E+01
  5.437875225126E+01  5.385457353302E+01  5.328375095262E+01  5.282291403829E+01
  5.233233141685E+01  5.181043320875E+01  5.125562036421E+01  5.066627353683E+01
  5.004076379494E+01  4.937746538073E+01  4.867477073407E+01  4.793110799985E+01
  4.714496123381E+01  4.631489351045E+01  4.573645166436E+01  4.513753211046E+01
  4.451780297571E+01  4.387696769830E+01  4.321476986157E+01  4.253099832154E+01
  4.182549262011E+01  4.109814867164E+01  4.034892470453E+01  3.957784743337E+01
  3.878501842985E+01  3.797062065277E+01  3.713492508843E+01  3.627829744329E+01
  3.540120481998E+01  3.450422229669E+01  3.358803931810E+01  3.265346579357E+01
  3.170143778546E+01  3.073302265800E+01  2.974942354407E+01  2.875198297562E+01
  2.774218551217E+01  2.672165919259E+01  2.569217562774E+01  2.465564854729E+01
  2.361413061275E+01  2.256980831213E+01  2.152499476036E+01  2.100315895989E+01
  2.048212024368E+01  1.996219876146E+01  1.944372036825E+01  1.892701611557E+01
  1.841242170182E+01  1.790027688182E+01  1.739092483549E+01  1.688471149612E+01
  1.638198483872E+01  1.588309412943E+01  1.538838913697E+01  1.489821930777E+01
  1.441293290643E+01  1.393287612373E+01  1.345839215453E+01  1.298982024856E+01
  1.252749473711E+01  1.207174403935E+01  1.162288965207E+01  1.118124512733E+01
  1.074711504254E+01  1.032079396811E+01  9.902565438068E+00  9.492700929292E+00
  9.091458855450E+00  8.699083581912E+00  8.315804468171E+00  7.941834944517E+00
  7.577371629828E+00  7.222593497492E+00  6.877661096451E+00  6.542715834394E+00
  6.217879329980E+00  5.903252840855E+00  5.598916773920E+00  5.304930284034E+00
  5.021330966882E+00  4.748134651244E+00  4.485335295309E+00  4.232904991003E+00
  3.990794079516E+00  3.758931380378E+00  3.537224535500E+00  3.325560468594E+00
  3.123805959332E+00  2.931808330480E+00  2.749396245102E+00  2.576380609733E+00
  2.412555578259E+00  2.257699650024E+00  2.111576854557E+00  1.973938014193E+00
  1.844522074813E+00  1.723057493965E+00  1.609263674793E+00  1.502852433466E+00
  1.403529487202E+00  1.310995949612E+00  1.224949819792E+00  1.145087451608E+00
  1.071104989709E+00  1.002699759229E+00  9.395715966548E-01  8.814241101562E-01
  8.279658586224E-01  7.789114398354E-01  7.339824795398E-01  6.929085146651E-01
  6.554277655749E-01  6.212877939335E-01  5.902460445646E-01  5.620702714916E-01
  5.365388501815E-01  5.134409797990E-01  4.925767809786E-01  4.737572962027E-01
  4.568044012946E-01  4.415506377556E-01  4.278389766617E-01  4.155225255425E-01
  4.044641900879E-01  3.945363026189E-01  3.856202290216E-01  3.776059652579E-01
  3.703917336333E-01  3.638835877179E-01  3.579950332144E-01  3.526466701597E-01
  3.477658597041E-01  3.432864163966E-01  3.391483245163E-01  3.352974746370E-01
  3.316854144293E-01  3.282691058212E-01  3.250106792144E-01  3.218771746073E-01
  3.188402593505E-01  3.158757813110E-01  3.129627717370E-01  3.100822495391E-01
  3.072169488827E-01  3.043514030913E-01  3.014717653425E-01  2.985657330858E-01
  2.956224604690E-01  2.926324757050E-01  2.895876016434E-01  2.864808793453E-01
  2.833064945063E-01  2.800597065948E-01  2.767367805914E-01  2.733349212267E-01
  2.698522096305E-01  2.662875423065E-01  2.626405723612E-01  2.589116529154E-01
  2.551017826407E-01  2.512125533437E-01  2.472460995846E-01  2.432050502417E-01
  2.390924819988E-01  2.349118747112E-01  2.306670686136E-01  2.263622233365E-01
  2.220017786981E-01  2.175904172432E-01  2.131330285009E-01  2.086346749324E-01
  2.041005595431E-01  1.995359951319E-01  1.949463751519E-01  1.903371461554E-01
  1.857137817951E-01  1.810817583561E-01  1.764465317877E-01  1.718135162086E-01
  1.671880638531E-01  1.625754464304E-01  1.579808378630E-01  1.534092983733E-01
  1.488657598861E-01  1.443550127104E-01  1.398816934688E-01  1.354502742373E-01
  1.310650528595E-01  1.267301443987E-01  1.224494736901E-01  1.182267689547E-01
  1.140655564366E-01  1.099691560232E-01  1.059406778093E-01  1.019830195648E-01
  9.809886506348E-02  9.429068323319E-02  9.056072808520E-02  8.691103938012E-02
  8.334344398887E-02  7.985955790591E-02  7.646078887243E-02  7.314833956700E-02
  6.992321132157E-02  6.678620832078E-02  6.373794224342E-02  6.077883730497E-02
  5.790913566176E-02  5.512890313769E-02  5.243803523638E-02  4.983626340287E-02
  4.732316150093E-02  4.489815247440E-02  4.256051516283E-02  4.030939124479E-02
  3.814379228443E-02  3.606260685990E-02  3.406460774850E-02  3.214845918500E-02
  3.031272411362E-02  2.855587148765E-02  2.687628357429E-02  2.527226326170E-02
  2.374204136000E-02  2.228378388718E-02  2.089559933045E-02  1.957554587197E-02
  1.832163856568E-02  1.713185645000E-02  1.600414957825E-02  1.493644594589E-02
  1.392665829152E-02  1.297269074575E-02  1.207244530085E-02  1.122382807241E-02
  1.042475532421E-02  9.673159227456E-03  8.966993327059E-03  8.304237689038E-03
  7.682903706147E-03  7.101038541749E-03  6.556729195728E-03  6.048106180234E-03
  5.573346797338E-03  5.130678014960E-03  4.718378941749E-03  4.334782905705E-03
  3.978279145202E-03  3.647314124595E-03  3.340392489745E-03  3.056077681469E-03
  2.792992227184E-03  2.549817732745E-03  2.325294597874E-03  2.118221479325E-03
  1.927454526417E-03  1.751906413765E-03  1.590545195586E-03  1.442393005374E-03
  1.306524624037E-03  1.182065938411E-03  1.068192310834E-03  9.641268790746E-04
  8.691388044462E-04  7.825414843641E-04  7.036907440408E-04  6.319830204282E-04
  5.668535499750E-04  5.077745702687E-04  4.542535442145E-04  4.058314140719E-04
  3.620808914457E-04  3.226047882083E-04  2.870343923367E-04  2.550278917624E-04
  2.262688485669E-04  2.004647252010E-04  1.773454638499E-04  1.566621196084E-04
  1.381855477519E-04  1.217051450833E-04  1.070276450920E-04  9.397596646637E-05
  8.238811434370E-05  7.211613356113E-05  6.302511306510E-05  5.499224055493E-05
  4.790590636029E-05  4.166485548619E-05  3.617738669663E-05  3.136059744849E-05
  2.713967342959E-05  2.344722139889E-05  2.022264397295E-05  1.741155495146E-05
  1.496523372720E-05  1.284011728276E-05  1.099732823918E-05  9.402237390503E-06
  8.024059135129E-06  6.835478198577E-06  5.812306035228E-06  4.933165297151E-06
  4.179200767542E-06  3.533815173670E-06  2.982428319466E-06  2.512258010441E-06
  2.112121282827E-06  1.772254494060E-06  1.484150882132E-06  1.240414256205E-06
  1.034627539318E-06  8.612349452953E-07  7.154366352246E-07  5.930947634643E-07
  4.906498882473E-07  4.050467870584E-07  3.336687814010E-07  2.742797388774E-07
  2.249729822188E-07  1.841263946516E-07  1.503630684538E-07  1.225168984962E-07
  9.960257478931E-08  8.078947742067E-08  6.537902370290E-08  5.278506079485E-08
  4.251693752566E-08  3.416492666213E-08  2.738770348191E-08  2.190161833159E-08
  1.747152996578E-08  1.390299300108E-08  1.103561691034E-08  8.737435768060E-09
  6.900147583119E-09  5.435099668136E-09  4.269912243778E-09  3.345646507588E-09
  2.614435852674E-09  2.037509939742E-09  1.583551038112E-09  1.227330582485E-09
  9.485813600579E-10  7.310672570853E-10  5.618181574733E-10  4.305024927864E-10
  3.289141797986E-10  2.505543274943E-10  1.902912220071E-10  1.440847702031E-10
  1.087638587471E-10  8.184701763835E-11  6.139841176315E-11  4.591256208840E-11
  3.422235596745E-11  2.542587549353E-11  1.882838175329E-11  1.389646544400E-11
  1.022193163339E-11  7.493446598463E-12  5.474353272178E-12  3.985372199942E-12
  2.891158441483E-12  2.089891206787E-12  1.505240355329E-12  1.080189092352E-12
  7.723010310952E-13  5.501070709087E-13  3.903572729794E-13  2.759384143064E-13
  1.943019021873E-13  1.362814822776E-13  9.520751077877E-14  6.624598194475E-14
  4.590721953606E-14  3.168213513053E-14  2.177401539520E-14  1.490155545035E-14
  1.015480926047E-14  6.890279726890E-15  4.654836233898E-15  3.130773920632E-15
  2.096311214396E-15  1.397311637620E-15  9.271301367125E-16  6.123139754512E-16
  4.025034013440E-16  2.633312560233E-16  1.714541519837E-16  1.110916223952E-16
  7.162703629922E-17  4.595252498892E-17  2.933273432473E-17  1.862860006884E-17
  1.176971112693E-17  7.397456051834E-18  4.624904338456E-18  2.876069131198E-18
  1.778869935239E-18  1.094231317171E-18  6.693689698160E-19  4.071782506144E-19
  2.462843660444E-19  1.481128508089E-19  8.855686547307E-20  5.263745758816E-20
  3.110139486314E-20  1.826611218091E-20  0.000000000000E+00  0.000000000000E+00
  0.000000000000E+00  0.000000000000E+00  0.000000000000E+00  0.000000000000E+00
  0.000000000000E+00  0.000000000000E+00  0.000000000000E+00  0.000000000000E+00
  0.000000000000E+00  0.000000000000E+00  0.000000000000E+00  0.000000000000E+00
  0.000000000000E+00  0.000000000000E+00  0.000000000000E+00  0.000000000000E+00
  0.000000000000E+00  0.000000000000E+00  0.000000000000E+00  0.000000000000E+00
  0.000000000000E+00
</data>
</radfunc>
</valence-charge>
<semilocal-potentials set="lj">
<slps n="1" l="s" j="0.5" rc="1.35684192215" eref="-3.87533622575">
<radfunc>
<data npts="256">
 -1.674804236812E+01 -1.674744188865E+01 -1.674564685430E+01 -1.674265190237E+01
 -1.673848740777E+01 -1.673301066475E+01 -1.672602917012E+01 -1.671803273080E+01
 -1.670903898447E+01 -1.669854733273E+01 -1.668671684891E+01 -1.667385233426E+01
 -1.665829695883E+01 -1.664204164341E+01 -1.662285370366E+01 -1.660367748032E+01
 -1.658157902575E+01 -1.656061543363E+01 -1.653702868103E+01 -1.651049477906E+01
 -1.648065074783E+01 -1.645412069115E+01 -1.642498282359E+01 -1.639298544266E+01
 -1.635785338146E+01 -1.631928595595E+01 -1.627695475079E+01 -1.624252189003E+01
 -1.620560770011E+01 -1.616603799355E+01 -1.612362690535E+01 -1.607817616590E+01
 -1.602947433265E+01 -1.597729597814E+01 -1.592140083212E+01 -1.586153287515E+01
 -1.579741938115E+01 -1.572876990617E+01 -1.568033170087E+01 -1.562964398648E+01
 -1.557660618415E+01 -1.552111346761E+01 -1.546305659725E+01 -1.540232174856E+01
 -1.533879033517E+01 -1.527233882625E+01 -1.520283855867E+01 -1.513015554407E+01
 -1.505415027122E+01 -1.497467750417E+01 -1.489158607695E+01 -1.480471868572E+01
 -1.471391167952E+01 -1.461899485135E+01 -1.451979123121E+01 -1.441611688380E+01
 -1.430778071370E+01 -1.419458428171E+01 -1.407632163674E+01 -1.395277916862E+01
 -1.382373548812E+01 -1.368896134159E+01 -1.354821956916E+01 -1.340126511621E+01
 -1.324784510967E+01 -1.308769901154E+01 -1.292055886308E+01 -1.283428033719E+01
 -1.274614963341E+01 -1.265613134431E+01 -1.256418968576E+01 -1.247028851868E+01
 -1.237439137308E+01 -1.227646147422E+01 -1.217646177106E+01 -1.207435496677E+01
 -1.197010355138E+01 -1.186366983623E+01 -1.175501599037E+01 -1.164410407832E+01
 -1.153089609930E+01 -1.141535402755E+01 -1.129743985351E+01 -1.117711562573E+01
 -1.105434349352E+01 -1.092908575030E+01 -1.080130487822E+01 -1.067096359456E+01
 -1.053802490136E+01 -1.040245214004E+01 -1.026420905373E+01 -1.012325986112E+01
 -9.979569346689E+00 -9.833102973856E+00 -9.683827028866E+00 -9.531708805362E+00
 -9.376716841127E+00 -9.218821220501E+00 -9.057993957593E+00 -8.894209476904E+00
 -8.727445208955E+00 -8.557682318929E+00 -8.384906585945E+00 -8.209109449294E+00
 -8.030289235570E+00 -7.848452577179E+00 -7.663616028175E+00 -7.475807877795E+00
 -7.285070155805E+00 -7.091460816986E+00 -6.895056085189E+00 -6.695952930927E+00
 -6.494271650747E+00 -6.290158512283E+00 -6.083788426273E+00 -5.875367606345E+00
 -5.665136179289E+00 -5.453370712976E+00 -5.240386636086E+00 -5.026540533129E+00
 -4.812232309751E+00 -4.597907236459E+00 -4.384057893209E+00 -4.171226052086E+00
 -3.960004549380E+00 -3.751039210087E+00 -3.545030894033E+00 -3.342737727906E+00
 -3.144977561732E+00 -2.952630625464E+00 -2.766642235223E+00 -2.588025171089E+00
 -2.417860966987E+00 -2.257298758507E+00 -2.107549477801E+00 -1.969872074383E+00
 -1.845547227557E+00 -1.735833126501E+00 -1.641898180644E+00 -1.564728323700E+00
 -1.505013420708E+00 -1.463028906776E+00 -1.438543253129E+00 -1.430792684021E+00
 -1.438561148341E+00 -1.460376831344E+00 -1.494789116606E+00 -1.540642491087E+00
 -1.597246543628E+00 -1.664371422313E+00 -1.742063901941E+00 -1.830345809791E+00
 -1.928891232906E+00 -2.036770890018E+00 -2.152313561621E+00 -2.273088448850E+00
 -2.395978494305E+00 -2.517301689375E+00 -2.632942533386E+00 -2.738470285585E+00
 -2.829235776352E+00 -2.900449405276E+00 -2.947248797908E+00 -2.964766093139E+00
 -2.948204567069E+00 -2.913063337311E+00 -2.878522013428E+00 -2.844389326756E+00
 -2.810661448778E+00 -2.777333512679E+00 -2.744400702934E+00 -2.711858378159E+00
 -2.679701910773E+00 -2.647926732672E+00 -2.616528327779E+00 -2.585502232376E+00
 -2.554844034712E+00 -2.524549374579E+00 -2.494613942858E+00 -2.465033481040E+00
 -2.435803780728E+00 -2.406920683107E+00 -2.378380078504E+00 -2.350177905710E+00
 -2.322310151446E+00 -2.294772850142E+00 -2.267562083109E+00 -2.240673977973E+00
 -2.214104708327E+00 -2.187850493108E+00 -2.161907596091E+00 -2.136272325361E+00
 -2.110941032801E+00 -2.085910113570E+00 -2.061176005601E+00 -2.036735189088E+00
 -2.012584185990E+00 -1.988719559537E+00 -1.965137913733E+00 -1.941835892881E+00
 -1.918810181095E+00 -1.896057501830E+00 -1.873574617416E+00 -1.851358328589E+00
 -1.829405474041E+00 -1.807712929961E+00 -1.786277609594E+00 -1.765096462800E+00
 -1.744166475613E+00 -1.723484669818E+00 -1.703048102519E+00 -1.682853865727E+00
 -1.662899085936E+00 -1.643180923721E+00 -1.623696573330E+00 -1.604443262284E+00
 -1.585418250981E+00 -1.566618832309E+00 -1.548042331259E+00 -1.529686104541E+00
 -1.511547540213E+00 -1.493624057305E+00 -1.475913105454E+00 -1.458412164540E+00
 -1.441118744328E+00 -1.424030384113E+00 -1.407144652373E+00 -1.390459146417E+00
 -1.373971492049E+00 -1.357679343229E+00 -1.341580381737E+00 -1.325672316846E+00
 -1.309952884994E+00 -1.294419849464E+00 -1.279071000064E+00 -1.263904152814E+00
 -1.248917149633E+00 -1.234107858033E+00 -1.219474170814E+00 -1.205014005764E+00
 -1.190725305377E+00 -1.176606036499E+00 -1.162654190092E+00 -1.148867781033E+00
 -1.135244847660E+00 -1.121783451528E+00 -1.108481677222E+00 -1.095337632016E+00
 -1.082349445621E+00 -1.069515269916E+00 -1.056833278682E+00 -1.044301667345E+00
 -1.031918652717E+00 -1.019682472744E+00 -1.007591386256E+00 -9.956436727214E-01
</data>
</radfunc>
</slps>
<slps n="2" l="p" j="1.5" rc="1.10779790854" eref="-0.769456653842E-08">
<radfunc>
<data npts="256">
 -1.204268908136E+01 -1.204225295768E+01 -1.204094902074E+01 -1.203877266406E+01
 -1.203574479676E+01 -1.203175995027E+01 -1.202667551764E+01 -1.202084543466E+01
 -1.201427999076E+01 -1.200661012082E+01 -1.199794745767E+01 -1.198851088473E+01
 -1.197707737153E+01 -1.196510265730E+01 -1.195093285809E+01 -1.193673464857E+01
 -1.192032753533E+01 -1.190471890861E+01 -1.188710672641E+01 -1.186723123028E+01
 -1.184479861613E+01 -1.182478952423E+01 -1.180274216115E+01 -1.177844708558E+01
 -1.175167338046E+01 -1.172216658825E+01 -1.168964651433E+01 -1.166309468782E+01
 -1.163453396467E+01 -1.160381297296E+01 -1.157076955709E+01 -1.153523021500E+01
 -1.149700956260E+01 -1.145590984317E+01 -1.141172050377E+01 -1.136421786564E+01
 -1.131316492102E+01 -1.125831129498E+01 -1.121950109521E+01 -1.117880355257E+01
 -1.113613495957E+01 -1.109140929687E+01 -1.104453839282E+01 -1.099543212368E+01
 -1.094399865908E+01 -1.089014475756E+01 -1.083377611684E+01 -1.077479778383E+01
 -1.071311462896E+01 -1.064863188920E+01 -1.058125578382E+01 -1.051089420597E+01
 -1.043745749252E+01 -1.036085927322E+01 -1.028101739857E+01 -1.019785494429E+01
 -1.011130128744E+01 -1.002129324696E+01 -9.927776278131E+00 -9.830705706860E+00
 -9.730047985995E+00 -9.625781951470E+00 -9.517900051802E+00 -9.406409519857E+00
 -9.291333451296E+00 -9.172711749808E+00 -9.050601895279E+00 -8.988261818318E+00
 -8.925079487641E+00 -8.861067228867E+00 -8.796238516370E+00 -8.730607963026E+00
 -8.664191303607E+00 -8.597005371398E+00 -8.529068067629E+00 -8.460398323293E+00
 -8.391016052949E+00 -8.320942100104E+00 -8.250198173796E+00 -8.178806776017E+00
 -8.106791119637E+00 -8.034175036580E+00 -7.960982876038E+00 -7.887239392633E+00
 -7.812969624590E+00 -7.738198762190E+00 -7.662952007027E+00 -7.587254422973E+00
 -7.511130780225E+00 -7.434605394356E+00 -7.357701963047E+00 -7.280443404035E+00
 -7.202851698780E+00 -7.124947747559E+00 -7.046751242884E+00 -6.968280569495E+00
 -6.889552740452E+00 -6.810583380068E+00 -6.731386765358E+00 -6.651975938312E+00
 -6.572362901304E+00 -6.492558907304E+00 -6.412574855031E+00 -6.332421796611E+00
 -6.252111561642E+00 -6.171657496818E+00 -6.091075314336E+00 -6.010384035612E+00
 -5.929607009383E+00 -5.848772975629E+00 -5.767917139323E+00 -5.687082211350E+00
 -5.606319368682E+00 -5.525689082672E+00 -5.445261763699E+00 -5.365118172987E+00
 -5.285349558618E+00 -5.206057482936E+00 -5.127353322872E+00 -5.049357443253E+00
 -4.972198065780E+00 -4.896009882758E+00 -4.820932494446E+00 -4.747108781259E+00
 -4.674683355922E+00 -4.603801273973E+00 -4.534607210380E+00 -4.467245329271E+00
 -4.401860072466E+00 -4.338598053308E+00 -4.277611137985E+00 -4.219060587187E+00
 -4.163121762783E+00 -4.109988315463E+00 -4.059873909263E+00 -4.013008413499E+00
 -3.969624250679E+00 -3.929927654239E+00 -3.894049813954E+00 -3.861975606124E+00
 -3.833454351350E+00 -3.807908543989E+00 -3.784370831174E+00 -3.761490203435E+00
 -3.737644791026E+00 -3.711171797123E+00 -3.680677592525E+00 -3.645343471939E+00
 -3.605962894294E+00 -3.563675468503E+00 -3.519066449867E+00 -3.473031865558E+00
 -3.426544097379E+00 -3.380455038464E+00 -3.335377401598E+00 -3.291652803164E+00
 -3.249386545838E+00 -3.208516764740E+00 -3.168888471549E+00 -3.130313992818E+00
 -3.092612998294E+00 -3.055633453084E+00 -3.019258691108E+00 -2.983405809851E+00
 -2.948018979779E+00 -2.913063337311E+00 -2.878522013428E+00 -2.844389326756E+00
 -2.810661448778E+00 -2.777333512679E+00 -2.744400702934E+00 -2.711858378159E+00
 -2.679701910773E+00 -2.647926732672E+00 -2.616528327779E+00 -2.585502232376E+00
 -2.554844034712E+00 -2.524549374579E+00 -2.494613942858E+00 -2.465033481040E+00
 -2.435803780728E+00 -2.406920683107E+00 -2.378380078504E+00 -2.350177905710E+00
 -2.322310151446E+00 -2.294772850142E+00 -2.267562083109E+00 -2.240673977973E+00
 -2.214104708327E+00 -2.187850493108E+00 -2.161907596091E+00 -2.136272325361E+00
 -2.110941032801E+00 -2.085910113570E+00 -2.061176005601E+00 -2.036735189088E+00
 -2.012584185990E+00 -1.988719559537E+00 -1.965137913733E+00 -1.941835892881E+00
 -1.918810181095E+00 -1.896057501830E+00 -1.873574617416E+00 -1.851358328589E+00