<?xml version="1.0" encoding="UTF-8" ?>
<psml version="1.1" energy_unit="hartree" length_unit="bohr"
 uuid="262ff4f0-53a0-11e8-7c47-4eb476b39b5d"
 xmlns="http://esl.cecam.org/PSML/ns/1.1">
<provenance creator="ONCVPSP-3.3.0+psml-3.3.0-73 (fully-relativistic)"
 date="2018-05-09">
<annotation action="semilocal-pseudopotential-generation"
 action-cont="projectors-generation" />
<input-file name="oncvpsp-input">
<![CDATA[# atsym z nc nv iexc psfile
Be 4 0 2 -116133 upf
# n l f
1 0 2.0
2 0 2.0
# lmax
1
# l rc ep ncon nbas qcut
0 1.2 0.0 4 7 10.4
1 1.05 0.0 4 7 10.0
# lloc lpopt rc5 dvloc0
4 5 0.95 0.0
# l nproj debl
0 2 1.0
1 2 1.0
# icmod fcfact
0 0.25
# epsh1 epsh2 depsh
-12.0 12.0 0.02
# rlmax drl
4.0 0.01
 0
]]>
</input-file>
</provenance>
<pseudo-atom-spec atomic-label="Be" atomic-number="4" z-pseudo="4"
 flavor="Hamann&apos;s oncvpsp" relativity="dirac" spin-dft="no"
 core-corrections="no">
<annotation pseudo-energy="-13.9217576896" />
<exchange-correlation>
<annotation oncvpsp-xc-code="-116133" oncvpsp-xc-type="libxc-interface" />
<libxc-info number-of-functionals="2">
<functional name="Perdew, Burke &amp; Ernzerhof SOL (GGA)" type="exchange"
 id="116" />
<functional name="Perdew, Burke &amp; Ernzerhof SOL (GGA)" type="correlation"
 id="133" />
</libxc-info>
</exchange-correlation>
<valence-configuration total-valence-charge="4">
<shell n="1" l="s" occupation="2" />
<shell n="2" l="s" occupation="2" />
</valence-configuration>
</pseudo-atom-spec>
<grid npts="457">
<annotation type="sampled from oncvpsp log grid"
 recipe="r(i:1..N) = r1*exp(a*(i-1)) + r=0; resampled"
 recipe-cont="r1: scale; a: step" scale="0.125000000000E-03"
 step="0.119285708653E-01" delta="0.500000000000E-02" rmax="44.1813421228" />
<grid-data>
  0.000000000000E+00  5.045089664318E-03  1.007717068006E-02  1.511736293017E-02
  2.012835760545E-02  2.524864506191E-02  3.055809503800E-02  3.568395144868E-02
  4.068727247651E-02  4.584201536434E-02  5.103737331347E-02  5.614775742254E-02
  6.176984548592E-02  6.714908551389E-02  7.299677779476E-02  7.841276441878E-02
  8.423058948002E-02  8.940718115625E-02  9.490191261456E-02  1.007343358937E-01
  1.069252046495E-01  1.121507391337E-01  1.176316503622E-01  1.233804188347E-01
  1.294101349845E-01  1.357345289867E-01  1.423680020228E-01  1.475549990844E-01
  1.529309777861E-01  1.585028234335E-01  1.642776721897E-01  1.702629202147E-01
  1.764662331383E-01  1.828955558777E-01  1.895591228129E-01  1.964654683334E-01
  2.036234377681E-01  2.110421987141E-01  2.161376015599E-01  2.213560278119E-01
  2.267004477474E-01  2.321739033578E-01  2.377795100805E-01  2.435204585719E-01
  2.494000165237E-01  2.554215305226E-01  2.615884279555E-01  2.679042189601E-01
  2.743724984227E-01  2.809969480246E-01  2.877813383377E-01  2.947295309705E-01
  3.018454807663E-01  3.091332380539E-01  3.165969509535E-01  3.242408677373E-01
  3.320693392479E-01  3.400868213747E-01  3.482978775900E-01  3.567071815465E-01
  3.653195197378E-01  3.741397942224E-01  3.831730254141E-01  3.924243549397E-01
  4.018990485653E-01  4.116024991939E-01  4.215402299344E-01  4.265987126936E-01
  4.317178972460E-01  4.368985120129E-01  4.421412941571E-01  4.474469896869E-01
  4.528163535632E-01  4.582501498060E-01  4.637491516036E-01  4.693141414229E-01
  4.749459111199E-01  4.806452620534E-01  4.864130051980E-01  4.922499612604E-01
  4.981569607955E-01  5.041348443251E-01  5.101844624570E-01  5.163066760065E-01
  5.225023561185E-01  5.287723843920E-01  5.351176530047E-01  5.415390648407E-01
  5.480375336188E-01  5.546139840222E-01  5.612693518305E-01  5.680045840525E-01
  5.748206390611E-01  5.817184867298E-01  5.886991085706E-01  5.957634978734E-01
  6.029126598479E-01  6.101476117661E-01  6.174693831073E-01  6.248790157046E-01
  6.323775638930E-01  6.399660946597E-01  6.476456877956E-01  6.554174360492E-01
  6.632824452818E-01  6.712418346252E-01  6.792967366407E-01  6.874482974804E-01
  6.956976770501E-01  7.040460491747E-01  7.124946017648E-01  7.210445369860E-01
  7.296970714298E-01  7.384534362870E-01  7.473148775224E-01  7.562826560527E-01
  7.653580479253E-01  7.745423445004E-01  7.838368526344E-01  7.932428948661E-01
  8.027618096044E-01  8.123949513197E-01  8.221436907355E-01  8.320094150244E-01
  8.419935280047E-01  8.520974503407E-01  8.623226197448E-01  8.726704911817E-01
  8.831425370759E-01  8.937402475208E-01  9.044651304911E-01  9.153187120570E-01
  9.263025366017E-01  9.374181670409E-01  9.486671850454E-01  9.600511912659E-01
  9.715718055611E-01  9.832306672278E-01  9.950294352346E-01  1.006969788457E+00
  1.019053425919E+00  1.031282067030E+00  1.043657451834E+00  1.056181341256E+00
  1.068855517351E+00  1.081681783560E+00  1.094661964962E+00  1.107797908542E+00
  1.121091483444E+00  1.134544581246E+00  1.148159116221E+00  1.161937025615E+00
  1.175880269923E+00  1.189990833162E+00  1.204270723160E+00  1.218721971838E+00
  1.233346635500E+00  1.248146795126E+00  1.263124556667E+00  1.278282051347E+00
  1.293621435963E+00  1.309144893195E+00  1.324854631913E+00  1.340752887496E+00
  1.356841922146E+00  1.373124025212E+00  1.389601513514E+00  1.406276731677E+00
  1.423152052457E+00  1.440229877086E+00  1.457512635611E+00  1.475002787239E+00
  1.492702820685E+00  1.510615254534E+00  1.528742637588E+00  1.547087549239E+00
  1.565652599830E+00  1.584440431028E+00  1.603453716200E+00  1.622695160795E+00
  1.642167502724E+00  1.661873512757E+00  1.681815994910E+00  1.701997786849E+00
  1.722421760291E+00  1.743090821415E+00  1.764007911272E+00  1.785176006207E+00
  1.806598118281E+00  1.828277295701E+00  1.850216623249E+00  1.872419222728E+00
  1.894888253401E+00  1.917626912442E+00  1.940638435391E+00  1.963926096616E+00
  1.987493209775E+00  2.011343128292E+00  2.035479245832E+00  2.059904996782E+00
  2.084623856743E+00  2.109639343024E+00  2.134955015140E+00  2.160574475322E+00
  2.186501369026E+00  2.212739385454E+00  2.239292258080E+00  2.266163765177E+00
  2.293357730359E+00  2.320878023123E+00  2.348728559401E+00  2.376913302113E+00
  2.405436261739E+00  2.434301496880E+00  2.463513114842E+00  2.493075272220E+00
  2.522992175487E+00  2.553268081593E+00  2.583907298572E+00  2.614914186155E+00
  2.646293156389E+00  2.678048674265E+00  2.710185258356E+00  2.742707481457E+00
  2.775619971234E+00  2.808927410889E+00  2.842634539820E+00  2.876746154297E+00
  2.911267108149E+00  2.946202313447E+00  2.981556741208E+00  3.017335422103E+00
  3.053543447168E+00  3.090185968534E+00  3.127268200156E+00  3.164795418558E+00
  3.202772963581E+00  3.241206239144E+00  3.280100714014E+00  3.319461922582E+00
  3.359295465653E+00  3.399607011241E+00  3.440402295375E+00  3.481687122920E+00
  3.523467368395E+00  3.565748976816E+00  3.608537964538E+00  3.651840420112E+00
  3.695662505153E+00  3.740010455215E+00  3.784890580678E+00  3.830309267646E+00
  3.876272978858E+00  3.922788254604E+00  3.969861713659E+00  4.017500054223E+00
  4.065710054874E+00  4.114498575532E+00  4.163872558439E+00  4.213839029140E+00
  4.264405097490E+00  4.315577958659E+00  4.367364894163E+00  4.419773272893E+00
  4.472810552168E+00  4.526484278794E+00  4.580802090140E+00  4.635771715221E+00
  4.691400975804E+00  4.747697787514E+00  4.804670160964E+00  4.862326202895E+00
  4.920674117330E+00  4.979722206738E+00  5.039478873219E+00  5.099952619697E+00
  5.161152051134E+00  5.223085875747E+00  5.285762906256E+00  5.349192061131E+00
  5.413382365865E+00  5.478342954255E+00  5.544083069706E+00  5.610612066543E+00
  5.677939411341E+00  5.746074684278E+00  5.815027580489E+00  5.884807911455E+00
  5.955425606392E+00  6.026890713669E+00  6.099213402233E+00  6.172403963060E+00
  6.246472810616E+00  6.321430484344E+00  6.397287650156E+00  6.474055101958E+00
  6.551743763181E+00  6.630364688340E+00  6.709929064600E+00  6.790448213375E+00
  6.871933591935E+00  6.954396795039E+00  7.037849556579E+00  7.122303751258E+00
  7.207771396273E+00  7.294264653028E+00  7.381795828865E+00  7.470377378811E+00
  7.560021907357E+00  7.650742170245E+00  7.742551076288E+00  7.835461689203E+00
  7.929487229474E+00  8.024641076228E+00  8.120936769142E+00  8.218388010372E+00
  8.317008666496E+00  8.416812770494E+00  8.517814523740E+00  8.620028298025E+00
  8.723468637602E+00  8.828150261253E+00  8.934088064388E+00  9.041297121160E+00
  9.149792686614E+00  9.259590198854E+00  9.370705281240E+00  9.483153744615E+00
  9.596951589550E+00  9.712115008625E+00  9.828660388728E+00  9.946604313393E+00
  1.006596356515E+01  1.018675512794E+01  1.030899618947E+01  1.043270414374E+01
  1.055789659347E+01  1.068459135259E+01  1.081280644882E+01  1.094256012621E+01
  1.107387084772E+01  1.120675729790E+01  1.134123838547E+01  1.147733324610E+01
  1.161506124505E+01  1.175444197999E+01  1.189549528375E+01  1.203824122715E+01
  1.218270012188E+01  1.232889252334E+01  1.247683923362E+01  1.262656130443E+01
  1.277808004008E+01  1.293141700056E+01  1.308659400457E+01  1.324363313262E+01
  1.340255673021E+01  1.356338741098E+01  1.372614805991E+01  1.389086183663E+01
  1.405755217867E+01  1.422624280481E+01  1.439695771847E+01  1.456972121109E+01
  1.474455786562E+01  1.492149256001E+01  1.510055047073E+01  1.528175707638E+01
  1.546513816130E+01  1.565071981923E+01  1.583852845706E+01  1.602859079855E+01
  1.622093388813E+01  1.641558509479E+01  1.661257211592E+01  1.681192298131E+01
  1.701366605709E+01  1.721783004978E+01  1.742444401037E+01  1.763353733850E+01
  1.784513978656E+01  1.805928146400E+01  1.827599284157E+01  1.849530475566E+01
  1.871724841273E+01  1.894185539369E+01  1.916915765841E+01  1.939918755031E+01
  1.963197780091E+01  1.986756153453E+01  2.010597227294E+01  2.034724394022E+01
  2.059141086750E+01  2.083850779791E+01  2.108856989148E+01  2.134163273018E+01
  2.159773232294E+01  2.185690511082E+01  2.211918797215E+01  2.238461822781E+01
  2.265323364655E+01  2.292507245031E+01  2.320017331971E+01  2.347857539955E+01
  2.376031830434E+01  2.404544212399E+01  2.433398742948E+01  2.462599527863E+01
  2.492150722198E+01  2.522056530864E+01  2.552321209235E+01  2.582949063745E+01
  2.613944452510E+01  2.645311785940E+01  2.677055527372E+01  2.709180193700E+01
  2.741690356025E+01  2.774590640297E+01  2.807885727980E+01  2.841580356716E+01
  2.875679320997E+01  2.910187472849E+01  2.945109722523E+01  2.980451039193E+01
  3.016216451664E+01  3.052411049083E+01  3.089039981672E+01  3.126108461453E+01
  3.163621762990E+01  3.201585224146E+01  3.240004246836E+01  3.278884297798E+01
  3.318230909371E+01  3.358049680284E+01  3.398346276447E+01  3.439126431764E+01
  3.480395948946E+01  3.522160700333E+01  3.564426628737E+01  3.607199748282E+01
  3.650486145261E+01  3.694291979004E+01  3.738623482752E+01  3.783486964545E+01
  3.828888808120E+01  3.874835473817E+01  3.921333499503E+01  3.968389501497E+01
  4.016010175515E+01  4.064202297621E+01  4.112972725193E+01  4.162328397895E+01
  4.212276338670E+01  4.262823654734E+01  4.313977538591E+01  4.365745269054E+01
  4.418134212282E+01
</grid-data>
</grid>
<valence-charge total-charge="4" is-unscreening-charge="yes"
 rescaled-to-z-pseudo="no">
<radfunc>
<data npts="457">
  7.464694991005E+01  7.463380879956E+01  7.459453471234E+01  7.452904302238E+01
  7.443805152438E+01  7.431852127493E+01  7.416636889255E+01  7.399239890400E+01
  7.379711647941E+01  7.356982463095E+01  7.331419298133E+01  7.303701744185E+01
  7.270297698650E+01  7.235520527916E+01  7.194639970148E+01  7.153968935341E+01
  7.107328688205E+01  7.063309604691E+01  7.014045113675E+01  6.958956992223E+01
  6.897415771620E+01  6.843080161800E+01  6.783805998151E+01  6.719199028150E+01
  6.648844898978E+01  6.572310683678E+01  6.489147139675E+01  6.422146194081E+01
  6.350957687314E+01  6.275381342551E+01  6.195216725696E+01  6.110264993402E+01
  6.020330935379E+01  5.925225337035E+01  5.824767687349E+01  5.718789254539E+01
  5.607136548467E+01  5.489675183344E+01  5.408084652728E+01  5.323836409425E+01
  5.236910473097E+01  5.147293745595E+01  5.054980732103E+01  4.959974289379E+01
  4.862286397074E+01  4.761938947173E+01  4.658964545514E+01  4.553407318151E+01
  4.445323714100E+01  4.334783294625E+01  4.221869497827E+01  4.106680365819E+01
  3.989329220280E+01  3.869945270682E+01  3.748674138025E+01  3.625678275570E+01
  3.501137266809E+01  3.375247979888E+01  3.248224556993E+01  3.120298216755E+01
  2.991716847847E+01  2.862744372491E+01  2.733659859856E+01  2.604756371257E+01
  2.476339521874E+01  2.348725747400E+01  2.222240268710E+01  2.159524104660E+01
  2.097214753340E+01  2.035354247943E+01  1.973984679356E+01  1.913148098529E+01
  1.852886414940E+01  1.793241291440E+01  1.734254035761E+01  1.675965489049E+01
  1.618415911800E+01  1.561644867640E+01  1.505691105409E+01  1.450592440069E+01
  1.396385632988E+01  1.343106272188E+01  1.290788653183E+01  1.239465661080E+01
  1.189168654616E+01  1.139927352871E+01  1.091769725382E+01  1.044721886425E+01
  9.988079942354E+00  9.540501559435E+00  9.104683389954E+00  8.680802898328E+00
  8.269014605778E+00  7.869449444479E+00  7.482214205939E+00  7.107391090095E+00
  6.745037361079E+00  6.395185115049E+00  6.057841164719E+00  5.732987044470E+00
  5.420579139052E+00  5.120548937901E+00  4.832803416103E+00  4.557225541923E+00
  4.293674909694E+00  4.041988495649E+00  3.801981533106E+00  3.573448502161E+00
  3.356164227844E+00  3.149885079517E+00  2.954350263107E+00  2.769283196734E+00
  2.594392959238E+00  2.429375800260E+00  2.273916699707E+00  2.127690963839E+00
  1.990365844672E+00  1.861602169137E+00  1.741055964251E+00  1.628380064634E+00
  1.523225688944E+00  1.425243972251E+00  1.334087441995E+00  1.249411426019E+00
  1.170875382136E+00  1.098144139875E+00  1.030889046326E+00  9.687890094476E-01
  9.115314336728E-01  8.588130442572E-01  8.103405983817E-01  7.658314826341E-01
  7.250141980466E-01  6.876287353552E-01  6.534268445289E-01  6.221722038656E-01
  5.936404950367E-01  5.676193913567E-01  5.439084672385E-01  5.223190372580E-01
  5.026739335117E-01  4.848072299728E-01  4.685639223364E-01  4.537995714257E-01
  4.403799176006E-01  4.281804728214E-01  4.170860960721E-01  4.069905568117E-01
  3.977960900192E-01  3.894129453069E-01  3.817589315411E-01  3.747589575026E-01
  3.683445683871E-01  3.624534774508E-01  3.570290918788E-01  3.520199434177E-01
  3.473787897171E-01  3.430616756736E-01  3.390276883405E-01  3.352389477989E-01
  3.316603963064E-01  3.282596622724E-01  3.250069161414E-01  3.218747336816E-01
  3.188379663476E-01  3.158736188510E-01  3.129607336068E-01  3.100802814946E-01
  3.072150583120E-01  3.043495863147E-01  3.014700203125E-01  2.985640578673E-01
  2.956208532268E-01  2.926309346944E-01  2.895861252076E-01  2.864794658869E-01
  2.833051424889E-01  2.800584145348E-01  2.767355470500E-01  2.733337448037E-01
  2.698510889577E-01  2.662864760424E-01  2.626395591862E-01  2.589106915274E-01
  2.551008717478E-01  2.512116916691E-01  2.472452858593E-01  2.432042832024E-01
  2.390917603860E-01  2.349111972679E-01  2.306664340843E-01  2.263616304660E-01
  2.220012262315E-01  2.175899039256E-01  2.131325530776E-01  2.086342361489E-01
  2.041001561460E-01  1.995356258695E-01  1.949460387750E-01  1.903368414181E-01
  1.857135074565E-01  1.810815131810E-01  1.764463145480E-01  1.718133256847E-01
  1.671878988355E-01  1.625753057209E-01  1.579807202760E-01  1.534092027378E-01
  1.488656850465E-01  1.443549575285E-01  1.398816568250E-01  1.354502550318E-01
  1.310650500138E-01  1.267301568568E-01  1.224495004196E-01  1.182268089484E-01
  1.140656087128E-01  1.099692196272E-01  1.059407518145E-01  1.019831030729E-01
  9.809895720550E-02  9.429078317037E-02  9.056083500924E-02  8.691115251375E-02
  8.334356258624E-02  7.985968125285E-02  7.646091628666E-02  7.314847039825E-02
  6.992334495160E-02  6.678634416334E-02  6.373807974408E-02  6.077897594093E-02
  5.790927494153E-02  5.512904260076E-02  5.243817445276E-02  4.983640197256E-02
  4.732329905342E-02  4.489828866798E-02  4.256064968394E-02  4.030952380727E-02
  3.814392262876E-02  3.606273475236E-02  3.406473298038E-02  3.214858157153E-02
  3.031284349312E-02  2.855598772057E-02  2.687639654220E-02  2.527237286634E-02
  2.374214752218E-02  2.228388654580E-02  2.089569844146E-02  1.957564140727E-02
  1.832173051213E-02  1.713194480837E-02  1.600423436216E-02  1.493652718084E-02
  1.392673601385E-02  1.297276500168E-02  1.207251614554E-02  1.122389556901E-02
  1.042481954297E-02  9.673220244882E-03  8.967051225066E-03  8.304292554170E-03
  7.682955628830E-03  7.101087615582E-03  6.556775516816E-03  6.048149846564E-03
  5.573387908201E-03  5.130716670410E-03  4.718415242108E-03  4.334816951109E-03
  3.978311035187E-03  3.647343957723E-03  3.340420363269E-03  3.056103691034E-03
  2.793016466562E-03  2.549840293608E-03  2.325315569592E-03  2.118240948798E-03
  1.927472577937E-03  1.751923128895E-03  1.590560653073E-03  1.442407281080E-03
  1.306537790889E-03  1.182078066371E-03  1.068203466886E-03  9.641371272274E-04
  8.691482057477E-04  7.825500969304E-04  7.036986230947E-04  6.319902183482E-04
  5.668601163522E-04  5.077805519714E-04  4.542589854586E-04  4.058363564976E-04
  3.620853741980E-04  3.226088480215E-04  2.870380636220E-04  2.550312066974E-04
  2.262718371872E-04  2.004674154925E-04  1.773478818420E-04  1.566642894671E-04
  1.381874918722E-04  1.217068841814E-04  1.070291982958E-04  9.397735140454E-05
  8.238934723310E-05  7.211722929188E-05  6.302608528346E-05  5.499310174350E-05
  4.790666791553E-05  4.166552779301E-05  3.617797919996E-05  3.136111872177E-05
  2.714013124004E-05  2.344762276958E-05  2.022299524165E-05  1.741186182621E-05
  1.496550133869E-05  1.284035023357E-05  1.099753064986E-05  9.402412942661E-06
  8.024211111541E-06  6.835609520461E-06  5.812419296767E-06  4.933262797393E-06
  4.179284539784E-06  3.533887012461E-06  2.982489805350E-06  2.512310532572E-06
  2.112166059584E-06  1.772292591782E-06  1.484183232117E-06  1.240441670070E-06
  1.034650722867E-06  8.612545109843E-07  7.154531133569E-07  5.931086122052E-07
  4.906615025665E-07  4.050565066929E-07  3.336768979273E-07  2.742865019767E-07
  2.249786052136E-07  1.841310593851E-07  1.503669295793E-07  1.225200872390E-07
  9.960520223582E-08  8.079163738856E-08  6.538079523784E-08  5.278651033746E-08
  4.251812078714E-08  3.416589024350E-08  2.738848626829E-08  2.190225268956E-08
  1.747204276896E-08  1.390340650620E-08  1.103594950360E-08  8.737702599305E-09
  6.900361103204E-09  5.435270083018E-09  4.270047897203E-09  3.345754202702E-09
  2.614521121553E-09  2.037577268648E-09  1.583604055207E-09  1.227372213826E-09
  9.486139588480E-10  7.310927104669E-10  5.618379745014E-10  4.305178766879E-10
  3.289260871472E-10  2.505635165258E-10  1.902982919478E-10  1.440901931857E-10
  1.087680056312E-10  8.185017883452E-11  6.140081397484E-11  4.591438172876E-11
  3.422372987742E-11  2.542690947596E-11  1.882915734602E-11  1.389704527750E-11
  1.022236365446E-11  7.493767388936E-12  5.474590647473E-12  3.985547236789E-12
  2.891287054670E-12  2.089985370917E-12  1.505309048117E-12  1.080239020321E-12
  7.723371858109E-13  5.501331537721E-13  3.903760184162E-13  2.759518347328E-13
  1.943114729761E-13  1.362882808825E-13  9.521232096883E-14  6.624937159194E-14
  4.590959843391E-14  3.168379779674E-14  2.177517262874E-14  1.490235750145E-14
  1.015536277152E-14  6.890660066597E-15  4.655096438972E-15  3.130951150088E-15
  2.096431388018E-15  1.397392754694E-15  9.271846398809E-16  6.123504268151E-16
  4.025276654490E-16  2.633473309441E-16  1.714647504443E-16  1.110985761782E-16
  7.163157632784E-17  4.595547436092E-17  2.933464069874E-17  1.862982600551E-17
  1.177049542796E-17  7.397955195426E-18  4.625220325284E-18  2.876268100329E-18
  1.778994543780E-18  1.094308928855E-18  6.694170421333E-19  4.072078595479E-19
  2.463024995173E-19  1.481238926151E-19  8.856354999220E-20  5.264148050233E-20
  3.110380155833E-20  1.826754331443E-20  0.000000000000E+00  0.000000000000E+00
  0.000000000000E+00  0.000000000000E+00  0.000000000000E+00  0.000000000000E+00
  0.000000000000E+00  0.000000000000E+00  0.000000000000E+00  0.000000000000E+00
  0.000000000000E+00  0.000000000000E+00  0.000000000000E+00  0.000000000000E+00
  0.000000000000E+00  0.000000000000E+00  0.000000000000E+00  0.000000000000E+00
  0.000000000000E+00  0.000000000000E+00  0.000000000000E+00  0.000000000000E+00
  0.000000000000E+00
</data>
</radfunc>
</valence-charge>
<semilocal-potentials set="lj">
<slps n="1" l="s" j="0.5" rc="1.20427072316" eref="-3.87533622575">
<radfunc>
<data npts="256">
 -1.870836547043E+01 -1.870747087198E+01 -1.870479650704E+01 -1.870033469078E+01
 -1.869413112834E+01 -1.868597389340E+01 -1.867557722941E+01 -1.866367159238E+01
 -1.865028420639E+01 -1.863467127568E+01 -1.861707125479E+01 -1.859793917974E+01
 -1.857481385057E+01 -1.855065785177E+01 -1.852215665422E+01 -1.849368644430E+01
 -1.846089421743E+01 -1.842980203974E+01 -1.839483755712E+01 -1.835552685157E+01
 -1.831133994157E+01 -1.827208380837E+01 -1.822899442956E+01 -1.818170632648E+01
 -1.812982067372E+01 -1.807290248264E+01 -1.801047757478E+01 -1.795973602548E+01
 -1.790537255957E+01 -1.784713704042E+01 -1.778476300131E+01 -1.771796667164E+01
 -1.764644595332E+01 -1.756987934587E+01 -1.748792481927E+01 -1.740021863416E+01
 -1.730637410975E+01 -1.720598034106E+01 -1.713519825005E+01 -1.706117604311E+01
 -1.698377230438E+01 -1.690283992746E+01 -1.681822592642E+01 -1.672977124629E+01
 -1.663731057404E+01 -1.654067215187E+01 -1.643967759451E+01 -1.633414171302E+01
 -1.622387234781E+01 -1.610867021450E+01 -1.598832876663E+01 -1.586263408043E+01
 -1.573136476762E+01 -1.559429192359E+01 -1.545117911962E+01 -1.530178244965E+01
 -1.514585064379E+01 -1.498312526333E+01 -1.481334099449E+01 -1.463622606095E+01
 -1.445150277892E+01 -1.425888828181E+01 -1.405809544583E+01 -1.384883405200E+01
 -1.363081222445E+01 -1.340373818943E+01 -1.316732240346E+01 -1.304552209942E+01
 -1.292128010358E+01 -1.279456206424E+01 -1.266533433609E+01 -1.253356410536E+01
 -1.239921952497E+01 -1.226226986037E+01 -1.212268564655E+01 -1.198043885717E+01
 -1.183550308654E+01 -1.168785374546E+01 -1.153746827219E+01 -1.138432635987E+01
 -1.122841020217E+01 -1.106970475937E+01 -1.090819804728E+01 -1.074388145227E+01
 -1.057675007613E+01 -1.040680311531E+01 -1.023404427966E+01 -1.005848225705E+01
 -9.880131230753E+00 -9.699011457424E+00 -9.515149914273E+00 -9.328581024592E+00
 -9.139347471009E+00 -8.947501105818E+00 -8.753103967153E+00 -8.556229408602E+00
 -8.356963348083E+00 -8.155405639152E+00 -7.951671564612E+00 -7.745893448074E+00
 -7.538222374214E+00 -7.328830002890E+00 -7.117910456158E+00 -6.905682250822E+00
 -6.692390242587E+00 -6.478307541552E+00 -6.263737352791E+00 -6.049014690578E+00
 -5.834507910461E+00 -5.620620000327E+00 -5.407789569787E+00 -5.196491476990E+00
 -4.987237033271E+00 -4.780573729027E+00 -4.577084428877E+00 -4.377385990444E+00
 -4.182127269143E+00 -3.991986480924E+00 -3.807667906081E+00 -3.629897929644E+00
 -3.459420427002E+00 -3.296991516179E+00 -3.143373708503E+00 -2.999329493848E+00
 -2.865614389525E+00 -2.742969454805E+00 -2.632113214272E+00 -2.533732827742E+00
 -2.448474176080E+00 -2.376930287943E+00 -2.319627212364E+00 -2.277006076479E+00
 -2.249399741777E+00 -2.237002356096E+00 -2.239830468445E+00 -2.257675595005E+00
 -2.290050548574E+00 -2.336135565470E+00 -2.394734746339E+00 -2.464257038766E+00
 -2.542736432532E+00 -2.627900644448E+00 -2.717285539114E+00 -2.808376690183E+00
 -2.898746348907E+00 -2.986150902832E+00 -3.068563975653E+00 -3.144140157098E+00
 -3.211125406251E+00 -3.267743912935E+00 -3.312093626131E+00 -3.342075247184E+00
 -3.355368122727E+00 -3.349452272174E+00 -3.321660757527E+00 -3.282107087990E+00
 -3.243196404161E+00 -3.204739771740E+00 -3.166740329820E+00 -3.129191972879E+00
 -3.092088289992E+00 -3.055424383394E+00 -3.019194985220E+00 -2.983394974924E+00
 -2.948019291054E+00 -2.913062932901E+00 -2.878520956882E+00 -2.844388474585E+00
 -2.810660651718E+00 -2.777332707580E+00 -2.744399914801E+00 -2.711857599180E+00
 -2.679701139575E+00 -2.647925967651E+00 -2.616527567608E+00 -2.585501476054E+00
 -2.554843281491E+00 -2.524548623863E+00 -2.494613194218E+00 -2.465032734184E+00
 -2.435803035477E+00 -2.406919939390E+00 -2.378379336279E+00 -2.350177165032E+00
 -2.322309412541E+00 -2.294772113174E+00 -2.267561348239E+00 -2.240673245453E+00
 -2.214103978419E+00 -2.187849766091E+00 -2.161906872252E+00 -2.136271604995E+00
 -2.110940316200E+00 -2.085909401027E+00 -2.061175297399E+00 -2.036734485503E+00
 -2.012583487288E+00 -1.988718865968E+00 -1.965137225535E+00 -1.941835210275E+00
 -1.918809504285E+00 -1.896056831003E+00 -1.873573952741E+00 -1.851357670215E+00
 -1.829404822098E+00 -1.807712284562E+00 -1.786276970831E+00 -1.765095830744E+00
 -1.744165850318E+00 -1.723484051317E+00 -1.703047490827E+00 -1.682853260838E+00
 -1.662898487827E+00 -1.643180332349E+00 -1.623695988633E+00 -1.604442684181E+00
 -1.585417679374E+00 -1.566618267082E+00 -1.548041772277E+00 -1.529685551654E+00
 -1.511546993254E+00 -1.493623516092E+00 -1.475912569789E+00 -1.458411634212E+00
 -1.441118219114E+00 -1.424029863779E+00 -1.407144136674E+00 -1.390458635102E+00
 -1.373970984862E+00 -1.357678839912E+00 -1.341579882031E+00 -1.325671820499E+00
 -1.309952391760E+00 -1.294419359111E+00 -1.279070512376E+00 -1.263903667596E+00
 -1.248916666719E+00 -1.234107377289E+00 -1.219473692143E+00 -1.205013529111E+00
 -1.190724830748E+00 -1.176605563946E+00 -1.162653719700E+00 -1.148867312974E+00
 -1.135244382179E+00 -1.121782988922E+00 -1.108481217856E+00 -1.095337176321E+00
 -1.082348994091E+00 -1.069514823103E+00 -1.056832837189E+00 -1.044301231820E+00
 -1.031918223846E+00 -1.019682051239E+00 -1.007590972843E+00 -9.956432681307E-01
</data>
</radfunc>
</slps>
<slps n="2" l="p" j="1.5" rc="1.05618134126" eref="0.614563167742E-08">
<radfunc>
<data npts="256">
 -1.331401765188E+01 -1.331311709461E+01 -1.331042551947E+01 -1.330593699961E+01
 -1.329970048364E+01 -1.329150730590E+01 -1.328107699395E+01 -1.326914955883E+01
 -1.325575898931E+01 -1.324017084569E+01 -1.322263553182E+01 -1.320361795640E+01
 -1.318069236475E+01 -1.315681660636E+01 -1.312874000360E+01 -1.310079528663E+01
 -1.306873362151E+01 -1.303845775262E+01 -1.300455464807E+01 -1.296661806256E+01
 -1.292420347894E+01 -1.288672342200E+01 -1.284580103780E+01 -1.280115201921E+01
 -1.275247478468E+01 -1.269945065821E+01 -1.264174434317E+01 -1.259518127642E+01
 -1.254563371591E+01 -1.249294385214E+01 -1.243695010974E+01 -1.237748771556E+01
 -1.231438936722E+01 -1.224748600634E+01 -1.217660769782E+01 -1.210158461397E+01
 -1.202224811837E+01 -1.193843193964E+01 -1.187998526150E+01 -1.181942818294E+01
 -1.175671481175E+01 -1.169180057397E+01 -1.162464238500E+01 -1.155519881466E+01
 -1.148343024287E+01 -1.140929900203E+01 -1.133276950185E+01 -1.125380833199E+01
 -1.117238433754E+01 -1.108846866226E+01 -1.100203475426E+01 -1.091305832900E+01
 -1.082151728468E+01 -1.072739156593E+01 -1.063066297224E+01 -1.053131490939E+01
 -1.042933208355E+01 -1.032470014058E+01 -1.021740525557E+01 -1.010743368181E+01
 -9.994771272509E+00 -9.879402993450E+00 -9.761312450522E+00 -9.640481461642E+00
 -9.516889708484E+00 -9.390514508793E+00 -9.261330754391E+00 -9.195677191665E+00
 -9.129311062732E+00 -9.062228657086E+00 -8.994426190231E+00 -8.925899834087E+00
 -8.856645753137E+00 -8.786660146544E+00 -8.715939296461E+00 -8.644479622715E+00
 -8.572277744025E+00 -8.499330545912E+00 -8.425635255496E+00 -8.351189523408E+00
 -8.275991513125E+00 -8.200039998224E+00 -8.123334468190E+00 -8.045875243708E+00
 -7.967663602679E+00 -7.888701918594E+00 -7.808993813330E+00 -7.728544326908E+00
 -7.647360107240E+00 -7.565449623322E+00 -7.482823405682E+00 -7.399494318110E+00
 -7.315477864615E+00 -7.230792535261E+00 -7.145460193712E+00 -7.059506508157E+00
 -6.972961425462E+00 -6.885859686096E+00 -6.798241374444E+00 -6.710152495688E+00
 -6.621645566553E+00 -6.532780203058E+00 -6.443623684179E+00 -6.354251466233E+00
 -6.264747619209E+00 -6.175205153444E+00 -6.085726203280E+00 -5.996422034081E+00
 -5.907412840339E+00 -5.818827305917E+00 -5.730801902915E+00 -5.643479913191E+00
 -5.557010166356E+00 -5.471545499885E+00 -5.387240960708E+00 -5.304251783004E+00
 -5.222731193506E+00 -5.142828113049E+00 -5.064684840627E+00 -4.988434823262E+00
 -4.914200630085E+00 -4.842092260709E+00 -4.772205923296E+00 -4.704623412735E+00
 -4.639412197782E+00 -4.576626279077E+00 -4.516307795657E+00 -4.458489221042E+00
 -4.403195785270E+00 -4.350447474099E+00 -4.300259592344E+00 -4.252640466572E+00
 -4.207584490400E+00 -4.165058555545E+00 -4.124980242101E+00 -4.087187330071E+00
 -4.051400594107E+00 -4.017185551704E+00 -3.983923315355E+00 -3.950804419860E+00
 -3.916859958353E+00 -3.881038993882E+00 -3.842329214032E+00 -3.799901984294E+00
 -3.755055341052E+00 -3.709644230616E+00 -3.663977231836E+00 -3.618440358529E+00
 -3.573401952391E+00 -3.529142242183E+00 -3.485818651161E+00 -3.443468253709E+00
 -3.402037310365E+00 -3.361420538566E+00 -3.321487606573E+00 -3.282107087990E+00
 -3.243196404161E+00 -3.204739771740E+00 -3.166740329820E+00 -3.129191972879E+00
 -3.092088289992E+00 -3.055424383394E+00 -3.019194985220E+00 -2.983394974924E+00
 -2.948019291054E+00 -2.913062932901E+00 -2.878520956882E+00 -2.844388474585E+00
 -2.810660651718E+00 -2.777332707580E+00 -2.744399914801E+00 -2.711857599180E+00
 -2.679701139575E+00 -2.647925967651E+00 -2.616527567608E+00 -2.585501476054E+00
 -2.554843281491E+00 -2.524548623863E+00 -2.494613194218E+00 -2.465032734184E+00
 -2.435803035477E+00 -2.406919939390E+00 -2.378379336279E+00 -2.350177165032E+00
 -2.322309412541E+00 -2.294772113174E+00 -2.267561348239E+00 -2.240673245453E+00
 -2.214103978419E+00 -2.187849766091E+00 -2.161906872252E+00 -2.136271604995E+00
 -2.110940316200E+00 -2.085909401027E+00 -2.061175297399E+00 -2.036734485503E+00
 -2.012583487288E+00 -1.988718865968E+00 -1.965137225535E+00 -1.941835210275E+00