<?xml version="1.0" encoding="UTF-8" ?>
<psml version="1.1" energy_unit="hartree" length_unit="bohr"
 uuid="fd370620-539e-11e8-5ede-17327ffb8d7d"
 xmlns="http://esl.cecam.org/PSML/ns/1.1">
<provenance creator="ONCVPSP-3.3.0+psml-3.3.0-73 (fully-relativistic)"
 date="2018-05-09">
<annotation action="semilocal-pseudopotential-generation"
 action-cont="projectors-generation" />
<input-file name="oncvpsp-input">
<![CDATA[# atsym z nc nv iexc psfile
Rb 37 6 3 -116133 upf
# n l f
1 0 2.0
2 0 2.0
2 1 6.0
3 0 2.0
3 1 6.0
3 2 10.0
4 0 2.0
4 1 6.0
5 0 1.0
# lmax
2
# l rc ep ncon nbas qcut
0 1.7 0.0 4 9 6.4
1 1.75 0.0 4 9 6.6
2 1.9 0.1 4 9 7.4
# lloc lpopt rc5 dvloc0
4 5 1.7 2.5
# l nproj debl
0 2 1.0
1 2 3.5
2 2 2.5
# icmod fcfact rcfact
3 7.0 1.25
# epsh1 epsh2 depsh
-12.0 12.0 0.02
# rlmax drl
6.0 0.01
 0
]]>
</input-file>
</provenance>
<pseudo-atom-spec atomic-label="Rb" atomic-number="37" z-pseudo="9"
 flavor="Hamann&apos;s oncvpsp" relativity="dirac" spin-dft="no"
 core-corrections="yes">
<annotation pseudo-energy="-24.2697356251" />
<exchange-correlation>
<annotation oncvpsp-xc-code="-116133" oncvpsp-xc-type="libxc-interface" />
<libxc-info number-of-functionals="2">
<functional name="Perdew, Burke &amp; Ernzerhof SOL (GGA)" type="exchange"
 id="116" />
<functional name="Perdew, Burke &amp; Ernzerhof SOL (GGA)" type="correlation"
 id="133" />
</libxc-info>
</exchange-correlation>
<valence-configuration total-valence-charge="9">
<shell n="4" l="s" occupation="2" />
<shell n="4" l="p" occupation="6" />
<shell n="5" l="s" occupation="1" />
</valence-configuration>
</pseudo-atom-spec>
<grid npts="458">
<annotation type="sampled from oncvpsp log grid"
 recipe="r(i:1..N) = r1*exp(a*(i-1)) + r=0; resampled"
 recipe-cont="r1: scale; a: step" scale="0.135135135135E-04"
 step="0.119285708653E-01" delta="0.500000000000E-02" rmax="44.4480804401" />
<grid-data>
  0.000000000000E+00  5.015364275536E-03  1.001779654873E-02  1.502829226536E-02
  2.024987958689E-02  2.540108002142E-02  3.074258501631E-02  3.589938802680E-02
  4.093291586519E-02  4.611877975066E-02  5.134550390486E-02  5.648674120200E-02
  6.214277179039E-02  6.755448818428E-02  7.256668482434E-02  7.795076075524E-02
  8.373430751356E-02  8.888039899844E-02  9.434275580343E-02  1.001408147677E-01
  1.062952072679E-01  1.114899531924E-01  1.169385711956E-01  1.226534682428E-01
  1.286476576391E-01  1.349347886622E-01  1.415291776427E-01  1.466856132050E-01
  1.520299169380E-01  1.575689335796E-01  1.633097572469E-01  1.692597405222E-01
  1.754265038697E-01  1.818179453957E-01  1.884422509637E-01  1.953079046791E-01
  2.024236997544E-01  2.097987497720E-01  2.148641307865E-01  2.200518103602E-01
  2.253647412695E-01  2.308059475827E-01  2.363785263812E-01  2.420856495221E-01
  2.479305654442E-01  2.539166010163E-01  2.600471634312E-01  2.663257421451E-01
  2.727559108634E-01  2.793413295753E-01  2.860857466366E-01  2.929930009034E-01
  3.000670239172E-01  3.073118421427E-01  3.147315792594E-01  3.223304585090E-01
  3.301128050992E-01  3.380830486655E-01  3.462457257925E-01  3.546054825961E-01
  3.631670773679E-01  3.719353832838E-01  3.809153911778E-01  3.901122123824E-01
  3.995310816382E-01  4.091773600733E-01  4.190565382549E-01  4.240852167139E-01
  4.291742393145E-01  4.343243301863E-01  4.395362221485E-01  4.448106568143E-01
  4.501483846961E-01  4.555501653124E-01  4.610167672962E-01  4.665489685037E-01
  4.721475561258E-01  4.778133267993E-01  4.835470867209E-01  4.893496517615E-01
  4.952218475827E-01  5.011645097536E-01  5.071784838707E-01  5.132646256771E-01
  5.194238011853E-01  5.256568867995E-01  5.319647694411E-01  5.383483466744E-01
  5.448085268345E-01  5.513462291565E-01  5.579623839064E-01  5.646579325132E-01
  5.714338277034E-01  5.782910336358E-01  5.852305260395E-01  5.922532923519E-01
  5.993603318602E-01  6.065526558425E-01  6.138312877126E-01  6.211972631651E-01
  6.286516303231E-01  6.361954498870E-01  6.438297952856E-01  6.515557528291E-01
  6.593744218630E-01  6.672869149254E-01  6.752943579045E-01  6.833978901993E-01
  6.915986648817E-01  6.998978488603E-01  7.082966230466E-01  7.167961825232E-01
  7.253977367135E-01  7.341025095540E-01  7.429117396687E-01  7.518266805447E-01
  7.608486007112E-01  7.699787839198E-01  7.792185293268E-01  7.885691516787E-01
  7.980319814989E-01  8.076083652769E-01  8.172996656602E-01  8.271072616481E-01
  8.370325487879E-01  8.470769393733E-01  8.572418626458E-01  8.675287649976E-01
  8.779391101775E-01  8.884743794997E-01  8.991360720537E-01  9.099257049183E-01
  9.208448133773E-01  9.318949511379E-01  9.430776905515E-01  9.543946228381E-01
  9.658473583122E-01  9.774375266119E-01  9.891667769313E-01  1.001036778254E+00
  1.013049219594E+00  1.025205810229E+00  1.037508279951E+00  1.049958379311E+00
  1.062557879863E+00  1.075308574421E+00  1.088212277314E+00  1.101270824642E+00
  1.114486074537E+00  1.127859907432E+00  1.141394226321E+00  1.155090957037E+00
  1.168952048521E+00  1.182979473104E+00  1.197175226781E+00  1.211541329502E+00
  1.226079825456E+00  1.240792783362E+00  1.255682296762E+00  1.270750484323E+00
  1.285999490135E+00  1.301431484017E+00  1.317048661825E+00  1.332853245767E+00
  1.348847484716E+00  1.365033654533E+00  1.381414058387E+00  1.397991027088E+00
  1.414766919413E+00  1.431744122446E+00  1.448925051915E+00  1.466312152538E+00
  1.483907898368E+00  1.501714793149E+00  1.519735370667E+00  1.537972195115E+00
  1.556427861456E+00  1.575104995793E+00  1.594006255743E+00  1.613134330812E+00
  1.632491942782E+00  1.652081846095E+00  1.671906828248E+00  1.691969710187E+00
  1.712273346709E+00  1.732820626870E+00  1.753614474392E+00  1.774657848085E+00
  1.795953742262E+00  1.817505187169E+00  1.839315249415E+00  1.861387032408E+00
  1.883723676797E+00  1.906328360919E+00  1.929204301250E+00  1.952354752865E+00
  1.975783009899E+00  1.999492406018E+00  2.023486314890E+00  2.047768150669E+00
  2.072341368477E+00  2.097209464898E+00  2.122375978477E+00  2.147844490219E+00
  2.173618624102E+00  2.199702047591E+00  2.226098472162E+00  2.252811653828E+00
  2.279845393674E+00  2.307203538398E+00  2.334889980859E+00  2.362908660629E+00
  2.391263564557E+00  2.419958727331E+00  2.448998232059E+00  2.478386210844E+00
  2.508126845374E+00  2.538224367518E+00  2.568683059929E+00  2.599507256648E+00
  2.630701343728E+00  2.662269759852E+00  2.694216996971E+00  2.726547600934E+00
  2.759266172145E+00  2.792377366211E+00  2.825885894606E+00  2.859796525341E+00
  2.894114083645E+00  2.928843452649E+00  2.963989574081E+00  2.999557448970E+00
  3.035552138357E+00  3.071978764018E+00  3.108842509186E+00  3.146148619296E+00
  3.183902402727E+00  3.222109231560E+00  3.260774542339E+00  3.299903836847E+00
  3.339502682889E+00  3.379576715084E+00  3.420131635665E+00  3.461173215293E+00
  3.502707293876E+00  3.544739781403E+00  3.587276658780E+00  3.630323978685E+00
  3.673887866429E+00  3.717974520826E+00  3.762590215076E+00  3.807741297657E+00
  3.853434193229E+00  3.899675403548E+00  3.946471508390E+00  3.993829166491E+00
  4.041755116489E+00  4.090256177887E+00  4.139339252022E+00  4.189011323046E+00
  4.239279458922E+00  4.290150812429E+00  4.341632622179E+00  4.393732213645E+00
  4.446457000208E+00  4.499814484211E+00  4.553812258022E+00  4.608458005118E+00
  4.663759501179E+00  4.719724615193E+00  4.776361310576E+00  4.833677646303E+00
  4.891681778058E+00  4.950381959395E+00  5.009786542908E+00  5.069903981423E+00
  5.130742829200E+00  5.192311743150E+00  5.254619484068E+00  5.317674917877E+00
  5.381487016891E+00  5.446064861094E+00  5.511417639427E+00  5.577554651100E+00
  5.644485306913E+00  5.712219130596E+00  5.780765760163E+00  5.850134949285E+00
  5.920336568677E+00  5.991380607501E+00  6.063277174791E+00  6.136036500888E+00
  6.209668938899E+00  6.284184966166E+00  6.359595185760E+00  6.435910327989E+00
  6.513141251925E+00  6.591298946948E+00  6.670394534311E+00  6.750439268723E+00
  6.831444539948E+00  6.913421874427E+00  6.996382936920E+00  7.080339532163E+00
  7.165303606549E+00  7.251287249828E+00  7.338302696826E+00  7.426362329188E+00
  7.515478677138E+00  7.605664421264E+00  7.696932394319E+00  7.789295583051E+00
  7.882767130047E+00  7.977360335608E+00  8.073088659635E+00  8.169965723551E+00
  8.268005312233E+00  8.367221375980E+00  8.467628032492E+00  8.569239568882E+00
  8.672070443708E+00  8.776135289033E+00  8.881448912501E+00  8.988026299451E+00
  9.095882615045E+00  9.205033206425E+00  9.315493604902E+00  9.427279528161E+00
  9.540406882499E+00  9.654891765089E+00  9.770750466270E+00  9.887999471865E+00
  1.000665546553E+01  1.012673533111E+01  1.024825615509E+01  1.037123522895E+01
  1.049569005170E+01  1.062163833232E+01  1.074909799230E+01  1.087808716821E+01
  1.100862421423E+01  1.114072770480E+01  1.127441643726E+01  1.140970943451E+01
  1.154662594772E+01  1.168518545909E+01  1.182540768460E+01  1.196731257682E+01
  1.211092032774E+01  1.225625137167E+01  1.240332638813E+01  1.255216630479E+01
  1.270279230045E+01  1.285522580805E+01  1.300948851775E+01  1.316560237996E+01
  1.332358960852E+01  1.348347268382E+01  1.364527435603E+01  1.380901764830E+01
  1.397472586008E+01  1.414242257040E+01  1.431213164125E+01  1.448387722094E+01
  1.465768374759E+01  1.483357595256E+01  1.501157886399E+01  1.519171781036E+01
  1.537401842409E+01  1.555850664518E+01  1.574520872492E+01  1.593415122962E+01
  1.612536104437E+01  1.631886537691E+01  1.651469176143E+01  1.671286806257E+01
  1.691342247932E+01  1.711638354907E+01  1.732178015166E+01  1.752964151348E+01
  1.773999721164E+01  1.795287717818E+01  1.816831170432E+01  1.838633144477E+01
  1.860696742211E+01  1.883025103117E+01  1.905621404354E+01  1.928488861207E+01
  1.951630727541E+01  1.975050296272E+01  1.998750899827E+01  2.022735910625E+01
  2.047008741552E+01  2.071572846451E+01  2.096431720608E+01  2.121588901256E+01
  2.147047968071E+01  2.172812543688E+01  2.198886294212E+01  2.225272929742E+01
  2.251976204899E+01  2.278999919358E+01  2.306347918390E+01  2.334024093411E+01
  2.362032382532E+01  2.390376771122E+01  2.419061292376E+01  2.448090027884E+01
  2.477467108219E+01  2.507196713518E+01  2.537283074080E+01  2.567730470969E+01
  2.598543236620E+01  2.629725755460E+01  2.661282464525E+01  2.693217854100E+01
  2.725536468349E+01  2.758242905969E+01  2.791341820841E+01  2.824837922691E+01
  2.858735977763E+01  2.893040809496E+01  2.927757299210E+01  2.962890386801E+01
  2.998445071442E+01  3.034426412300E+01  3.070839529247E+01  3.107689603598E+01
  3.144981878841E+01  3.182721661387E+01  3.220914321324E+01  3.259565293180E+01
  3.298680076698E+01  3.338264237619E+01  3.378323408470E+01  3.418863289372E+01
  3.459889648844E+01  3.501408324630E+01  3.543425224526E+01  3.585946327220E+01
  3.628977683147E+01  3.672525415344E+01  3.716595720329E+01  3.761194868973E+01
  3.806329207400E+01  3.852005157889E+01  3.898229219784E+01  3.945007970421E+01
  3.992348066066E+01  4.040256242859E+01  4.088739317773E+01  4.137804189586E+01
  4.187457839862E+01  4.237707333940E+01  4.288559821947E+01  4.340022539811E+01
  4.392102810288E+01  4.444808044012E+01
</grid-data>
</grid>
<valence-charge total-charge="9" is-unscreening-charge="yes"
 rescaled-to-z-pseudo="no">
<radfunc>
<data npts="458">
  3.978630763404E-02  3.990273483841E-02  4.025088187812E-02  4.083206814217E-02
  4.168566997047E-02  4.277621981752E-02  4.416836524895E-02  4.576559554561E-02
  4.756546876826E-02  4.966970057659E-02  5.204836758306E-02  5.464203719963E-02
  5.778806967446E-02  6.108714188660E-02  6.439647198497E-02  6.822526093813E-02
  7.265672301903E-02  7.687953192256E-02  8.165265397726E-02  8.704976014135E-02
  9.315484512070E-02  9.861263420539E-02  1.046399026326E-01  1.112981895463E-01
  1.186560440687E-01  1.267898733158E-01  1.357848960450E-01  1.431531262396E-01
  1.511031977564E-01  1.596830809945E-01  1.689449058852E-01  1.789453321383E-01
  1.897459498214E-01  2.014137116025E-01  2.140213976869E-01  2.276481140515E-01
  2.423798239961E-01  2.583099122507E-01  2.696454628977E-01  2.815906670375E-01
  2.941794668387E-01  3.074476815036E-01  3.214330948237E-01  3.361755433851E-01
  3.517170047403E-01  3.681016847242E-01  3.853761029416E-01  4.035891752763E-01
  4.227922920769E-01  4.430393904567E-01  4.643870188973E-01  4.868943920748E-01
  5.106234335231E-01  5.356388034143E-01  5.620079083672E-01  5.898008897895E-01
  6.190905868139E-01  6.499524694057E-01  6.824645366919E-01  7.167071749924E-01
  7.527629694207E-01  7.907164622625E-01  8.306538506398E-01  8.726626152256E-01
  9.168310709923E-01  9.632478301716E-01  1.012001166765E+00  1.037281363736E+00
  1.063178271111E+00  1.089702476041E+00  1.116864382196E+00  1.144674175025E+00
  1.173141784594E+00  1.202276845854E+00  1.232088656247E+00  1.262586130529E+00
  1.293777752682E+00  1.325671524813E+00  1.358274912919E+00  1.391594789393E+00
  1.425637372187E+00  1.460408160490E+00  1.495911866853E+00  1.532152345642E+00
  1.569132517751E+00  1.606854291488E+00  1.645318479582E+00  1.684524712261E+00
  1.724471346372E+00  1.765155370549E+00  1.806572306431E+00  1.848716105992E+00
  1.891579045063E+00  1.935151613157E+00  1.979422399759E+00  2.024377977301E+00
  2.070002781051E+00  2.116278986273E+00  2.163186382999E+00  2.210702248888E+00
  2.258801220685E+00  2.307455164894E+00  2.356633048350E+00  2.406300809487E+00
  2.456421231181E+00  2.506953816169E+00  2.557854666125E+00  2.609076365628E+00
  2.660567872323E+00  2.712274414734E+00  2.764137399265E+00  2.816094328072E+00
  2.868078729552E+00  2.920020103346E+00  2.971843881788E+00  3.023471409833E+00
  3.074819945567E+00  3.125802683385E+00  3.176328802002E+00  3.226303539368E+00
  3.275628296578E+00  3.324200772711E+00  3.371915132444E+00  3.418662208097E+00
  3.464329737536E+00  3.508802639083E+00  3.551963324288E+00  3.593692048993E+00
  3.633867302745E+00  3.672366236111E+00  3.709065124946E+00  3.743839870124E+00
  3.776566530674E+00  3.807121887663E+00  3.835384035598E+00  3.861232997535E+00
  3.884551359570E+00  3.905224919842E+00  3.923143346832E+00  3.938200841343E+00
  3.950296796357E+00  3.959336448870E+00  3.965231517819E+00  3.967900822439E+00
  3.967270875718E+00  3.963276448135E+00  3.955861097516E+00  3.944977661650E+00
  3.930588711181E+00  3.912666961297E+00  3.891195641723E+00  3.866168825507E+00
  3.837591717987E+00  3.805480908067E+00  3.769864584450E+00  3.730782719670E+00
  3.688287224658E+00  3.642442075980E+00  3.593323416848E+00  3.541019631507E+00
  3.485631390581E+00  3.427271662524E+00  3.366065683510E+00  3.302150875066E+00
  3.235676695576E+00  3.166804408850E+00  3.095706750240E+00  3.022567468875E+00
  2.947580723460E+00  2.870950309318E+00  2.792888695946E+00  2.713615857765E+00
  2.633357885885E+00  2.552345375845E+00  2.470811595099E+00  2.388990444515E+00
  2.307114239758E+00  2.225411350735E+00  2.144103749574E+00  2.063404529148E+00
  1.983515464099E+00  1.904624693831E+00  1.826904611274E+00  1.750510041657E+00
  1.675576791618E+00  1.602220837545E+00  1.530538799220E+00  1.460609824584E+00
  1.392498901031E+00  1.326261080784E+00  1.261942690793E+00  1.199580922796E+00
  1.139204568588E+00  1.080834367235E+00  1.024483427552E+00  9.701576544708E-01
  9.178561819381E-01  8.675718095693E-01  8.192914403496E-01  7.729965168861E-01
  7.286634539043E-01  6.862640648819E-01  6.457659809111E-01  6.071330600505E-01
  5.703257857003E-01  5.353016525783E-01  5.020155392504E-01  4.704200661547E-01
  4.404659383589E-01  4.121022723972E-01  3.852769066940E-01  3.599366952208E-01
  3.360277841650E-01  3.134958715042E-01  2.922864494908E-01  2.723450301438E-01
  2.536173539319E-01  2.360495819034E-01  2.195884715844E-01  2.041815370172E-01
  1.897771933603E-01  1.763248865068E-01  1.637752082108E-01  1.520799972392E-01
  1.411924270878E-01  1.310670808237E-01  1.216600136302E-01  1.129288036498E-01
  1.048325917346E-01  9.733211072732E-02  9.038970490556E-02  8.396934023582E-02
  7.803660608527E-02  7.255870904555E-02  6.750445952025E-02  6.284425172190E-02
  5.855003771316E-02  5.459529611079E-02  5.095499604979E-02  4.760555698085E-02
  4.452480484646E-02  4.169192515428E-02  3.908741344025E-02  3.669302359430E-02
  3.449171450855E-02  3.246759550672E-02  3.060587102256E-02  2.889278501557E-02
  2.731556563775E-02  2.586237068776E-02  2.452223439590E-02  2.328501605979E-02
  2.214135098383E-02  2.108260405849E-02  2.010082615340E-02  1.918871330921E-02
  1.833956852852E-02  1.754726581897E-02  1.680621606086E-02  1.611133426892E-02
  1.545800788595E-02  1.484206586200E-02  1.425974840483E-02  1.370767740805E-02
  1.318282765261E-02  1.268249892815E-02  1.220428923533E-02  1.174606921732E-02
  1.130595793813E-02  1.088230008748E-02  1.047364465364E-02  1.007872507073E-02
  9.696440819166E-03  9.325840436095E-03  8.966105877488E-03  8.616538163534E-03
  8.276544233029E-03  7.945624929547E-03  7.623364041342E-03  7.309418317434E-03
  7.003508383648E-03  6.705410484112E-03  6.414948975768E-03  6.131989505609E-03
  5.856432802913E-03  5.588209021645E-03  5.327272571854E-03  5.073597383493E-03
  4.827172551877E-03  4.587998321124E-03  4.356082370360E-03  4.131436376979E-03
  3.914072841350E-03  3.704002167341E-03  3.501230002113E-03  3.305754845872E-03
  3.117565947098E-03  2.936641500520E-03  2.762947163890E-03  2.596434905482E-03
  2.437042187936E-03  2.284691487547E-03  2.139290132773E-03  2.000730451859E-03
  1.868890198343E-03  1.743633223590E-03  1.624810360986E-03  1.512260483899E-03
  1.405811698929E-03  1.305282636871E-03  1.210483805852E-03  1.121218974097E-03
  1.037286553270E-03  9.584809572978E-04  8.845939155022E-04  8.154157228964E-04
  7.507364141966E-04  6.903468516237E-04  6.340397196991E-04  5.816104230270E-04
  5.328578854627E-04  4.875852511028E-04  4.456004892229E-04  4.067169066479E-04
  3.707535721035E-04  3.375356578925E-04  3.068947048018E-04  2.786688165007E-04
  2.527027898712E-04  2.288481877409E-04  2.069633603954E-04  1.869134220513E-04
  1.685701881917E-04  1.518120793269E-04  1.365239963515E-04  1.225971722535E-04
  1.099290044878E-04  9.842287188709E-05  8.798793953853E-05  7.853895463312E-05
  6.999603588781E-05  6.228445876691E-05  5.533443838645E-05  4.908091167926E-05
  4.346332013080E-05  3.842539416536E-05  3.391494006874E-05  2.988363017394E-05
  2.628679690772E-05  2.308323119345E-05  2.023498562650E-05  1.770718277653E-05
  1.546782892359E-05  1.348763349729E-05  1.173983445739E-05  1.020002982713E-05
  8.846015565168E-06  7.657629936603E-06  6.616604517152E-06  5.706421936323E-06
  4.912180435602E-06  4.220465285975E-06  3.619227076241E-06  3.097666849923E-06
  2.646128034870E-06  2.255995076562E-06  1.919598654236E-06  1.630127329039E-06
  1.381545445776E-06  1.168517085120E-06  9.863358415059E-07  8.308601837042E-07
  6.984541402664E-07  5.859330407286E-07  4.905140355577E-07  4.097711131743E-07
  3.415943308074E-07  2.841529771575E-07  2.358623886090E-07  1.953541467214E-07
  1.614493926460E-07  1.331350036399E-07  1.095423876890E-07  8.992866410343E-08
  7.366001055759E-08  6.019697014286E-08  4.908152537738E-08  3.992575955856E-08
  3.240193918437E-08  2.623386425581E-08  2.118934598272E-08  1.707368364680E-08
  1.372402405101E-08  1.100449804367E-08  8.802039009272E-09  7.022797939275E-09
  5.589078725405E-09  4.436725655581E-09  3.512902748018E-09  2.774211553300E-09
  2.185100409596E-09  1.716523885313E-09  1.344816318405E-09  1.050747999076E-09
  8.187366801153E-10  6.361907745688E-10  4.929638518803E-10  3.809029080092E-10
  2.934753983540E-10  2.254622187754E-10  1.727057321085E-10  1.319035956526E-10
  1.004405774854E-10  7.625178213046E-11  5.771176296153E-11  4.354490147054E-11
  3.275320176886E-11  2.455830007038E-11  1.835503916245E-11  1.367442100534E-11
  1.015413897847E-11  7.515215786958E-12  5.543543171440E-12  4.075343609884E-12
  2.985759343020E-12  2.179926485016E-12  1.586017015149E-12  1.149833627058E-12
  8.306256054928E-13  5.978613807035E-13  4.287479391226E-13  3.063311646041E-13
  2.180463855852E-13  1.546165237814E-13  1.092176167394E-13  7.684922336720E-14
  5.386122523575E-14  3.759954886378E-14  2.614195964763E-14  1.810180669850E-14
  1.248282535559E-14  8.572148742293E-15  5.861796109566E-15  3.991296826467E-15
  2.705935755727E-15  1.826495570597E-15  1.227424322835E-15  8.211505299356E-16
  5.468641932993E-16  3.625277695434E-16  2.392127266492E-16  1.571029461179E-16
  1.026873690257E-16  6.679708829660E-17  0.000000000000E+00  0.000000000000E+00
  0.000000000000E+00  0.000000000000E+00
</data>
</radfunc>
</valence-charge>
<pseudocore-charge matching-radius="0.989166776931"
 number-of-continuous-derivatives="4">
<annotation model-charge-form="Teter function with specified parameters" />
<radfunc>
<data npts="291">
  2.846788849390E+01  2.846640868659E+01  2.846198494705E+01  2.845460430236E+01
  2.844377371143E+01  2.842995315097E+01  2.841233717008E+01  2.839216278313E+01
  2.836947556206E+01  2.834301427163E+01  2.831318216940E+01  2.828074985892E+01
  2.824154400143E+01  2.820058634478E+01  2.815965926873E+01  2.811250285381E+01
  2.805818121261E+01  2.800667055336E+01  2.794874000772E+01  2.788360456728E+01
  2.781038729966E+01  2.774534068021E+01  2.767394549864E+01  2.759560022711E+01
  2.750965014065E+01  2.741538342099E+01  2.731202715545E+01  2.722804335544E+01
  2.713809776489E+01  2.704178860119E+01  2.693869029893E+01  2.682835262281E+01
  2.671029983822E+01  2.658402995999E+01  2.644901410327E+01  2.630469596451E+01
  2.615049146467E+01  2.598578859148E+01  2.586983940217E+01  2.574874405398E+01
  2.562230080009E+01  2.549030266394E+01  2.535253759535E+01  2.520878866789E+01
  2.505883432193E+01  2.490244865796E+01  2.473940178506E+01  2.456946022977E+01
  2.439238741089E+01  2.420794418603E+01  2.401588947594E+01  2.381598097307E+01
  2.360797594086E+01  2.339163211055E+01  2.316670868259E+01  2.293296743942E+01
  2.269017397698E+01  2.243809906175E+01  2.217652012024E+01  2.190522286759E+01
  2.162400308129E+01  2.133266852568E+01  2.103104103209E+01  2.071895873831E+01
  2.039627849013E+01  2.006287840598E+01  1.971866060392E+01  1.954247174015E+01
  1.936355408823E+01  1.918190347357E+01  1.899751779011E+01  1.881039710316E+01
  1.862054375425E+01  1.842796246781E+01  1.823266045961E+01  1.803464754670E+01
  1.783393625883E+01  1.763054195094E+01  1.742448291664E+01  1.721578050246E+01
  1.700445922241E+01  1.679054687285E+01  1.657407464706E+01  1.635507724936E+01
  1.613359300838E+01  1.590966398903E+01  1.568333610272E+01  1.545465921554E+01
  1.522368725377E+01  1.499047830613E+01  1.475509472256E+01  1.451760320852E+01
  1.427807491455E+01  1.403658552028E+01  1.379321531227E+01  1.354804925498E+01
  1.330117705414E+01  1.305269321174E+01  1.280269707197E+01  1.255129285708E+01
  1.229858969257E+01  1.204470162074E+01  1.178974760168E+01  1.153385150092E+01
  1.127714206279E+01  1.101975286858E+01  1.076182227859E+01  1.050349335716E+01
  1.024491377987E+01  9.986235721790E+00  9.727615726216E+00  9.469214552821E+00
  9.211197004522E+00  8.953731732288E+00  8.696991017170E+00  8.441150528930E+00
  8.186389060691E+00  7.932888239120E+00  7.680832209776E+00  7.430407297315E+00
  7.181801640420E+00  6.935204801415E+00  6.690807350676E+00  6.448800426139E+00
  6.209375268322E+00  5.972722731530E+00  5.739032772038E+00  5.508493914328E+00
  5.281292696609E+00  5.057613097138E+00  4.837635943072E+00  4.621538303834E+00
  4.409492871241E+00  4.201667328917E+00  3.998223713743E+00  3.799317772420E+00
  3.605098316436E+00  3.415706579023E+00  3.231275577931E+00  3.051929488105E+00
  2.877783028549E+00  2.708940867915E+00  2.545497053498E+00  2.387534468512E+00
  2.235124322622E+00  2.088325680812E+00  1.947185035711E+00  1.811735928491E+00
  1.681998623404E+00  1.557979840919E+00  1.439672554230E+00  1.327055853691E+00
  1.220094883410E+00  1.118740853859E+00  1.022931133912E+00  9.325894251820E-01
  8.476260209277E-01  7.679381511271E-01  6.934104145503E-01  6.239152978516E-01
  5.593137808111E-01  4.994560259141E-01  4.441821494657E-01  3.933230704106E-01
  3.467014319723E-01  3.041325901638E-01  2.654256621593E-01  2.303846264812E-01
  1.988094659611E-01  1.704973434964E-01  1.452437997790E-01  1.228439614224E-01
  1.030937472985E-01  8.579106042516E-02  7.073695244500E-02  5.773674762812E-02
  4.660111342412E-02  3.714706490668E-02  2.919889100043E-02  2.258899116454E-02
  1.715861223118E-02  1.275847635577E-02  9.249292519804E-03  6.502145718828E-03
  4.398759845818E-03  2.831632312023E-03  1.704040598044E-03  9.299231532859E-04
  4.336393137770E-04  1.496151329336E-04  2.188416002858E-05  3.534197794933E-06
  5.607286407445E-05  1.487263148127E-04  2.576867027446E-04  3.653247996071E-04
  4.593846597268E-04  5.321772199742E-04  5.797892985485E-04  6.013235704169E-04
  5.981837737785E-04  5.734176694984E-04  5.311281806708E-04  4.759607451199E-04
  4.126722973817E-04  3.457845488057E-04  2.793214547514E-04  2.166280520495E-04
  1.602653248471E-04  1.119735157739E-04  7.269443611268E-05  4.264192302181E-05
  2.140870415153E-05  8.097596789826E-06  1.465199451089E-06  6.700890630638E-08
  2.394165806686E-06  6.993719827599E-06  1.256630831526E-05  1.803733871172E-05
  2.260001974586E-05  2.573076023684E-05  2.717941287714E-05  2.693846338160E-05
  2.519645617661E-05  2.228164095966E-05  1.860199183889E-05  1.458740472247E-05
  1.063907208337E-05  7.089857206883E-06  4.178062755458E-06  2.035451316967E-06
  6.888765564068E-07  7.356449954664E-08  5.506706378542E-08  4.562833047916E-07
  1.085754746896E-06  1.763688559591E-06  2.342796925091E-06  2.721970250882E-06
  2.851900715425E-06  2.732897876960E-06  2.406146342537E-06  1.940421509248E-06
  1.416712640415E-06  9.132598165722E-07  4.932030495333E-07  1.964310026240E-07
  3.640974995722E-08  0.000000000000E+00  0.000000000000E+00  0.000000000000E+00
  0.000000000000E+00  0.000000000000E+00  0.000000000000E+00  0.000000000000E+00
  0.000000000000E+00  0.000000000000E+00  0.000000000000E+00  0.000000000000E+00
  0.000000000000E+00  0.000000000000E+00  0.000000000000E+00  0.000000000000E+00
  0.000000000000E+00  0.000000000000E+00  0.000000000000E+00  0.000000000000E+00
  0.000000000000E+00  0.000000000000E+00  0.000000000000E+00  0.000000000000E+00
  0.000000000000E+00  0.000000000000E+00  0.000000000000E+00  0.000000000000E+00
  0.000000000000E+00  0.000000000000E+00  0.000000000000E+00  0.000000000000E+00
  0.000000000000E+00  0.000000000000E+00  0.000000000000E+00  0.000000000000E+00
  0.000000000000E+00  0.000000000000E+00  0.000000000000E+00  0.000000000000E+00
  0.000000000000E+00  0.000000000000E+00  0.000000000000E+00
</data>
</radfunc>
</pseudocore-charge>
<semilocal-potentials set="lj">
<slps n="4" l="s" j="0.5" rc="1.71227334671" eref="-1.17206198071">
<radfunc>
<data npts="291">
  3.645259817775E+01  3.643374966117E+01  3.637748462543E+01  3.628387994680E+01
  3.614712692254E+01  3.597365865011E+01  3.575422214550E+01  3.550518716007E+01
  3.522798838615E+01  3.490843319184E+01  3.455293208064E+01  3.417205270919E+01
  3.371924416300E+01  3.325488131830E+01  3.279948184261E+01  3.228514100522E+01
  3.170598344561E+01  3.116954469321E+01  3.058055403059E+01  2.993572840843E+01
  2.923200533261E+01  2.862477218917E+01  2.797689698163E+01  2.728742011538E+01
  2.655566109666E+01  2.578126592962E+01  2.496425382142E+01  2.432377320947E+01
  2.365990822421E+01  2.297316331915E+01  2.226420270900E+01  2.153385534809E+01
  2.078311788518E+01  2.001315534263E+01  1.922529930484E+01  1.842104344981E+01
  1.760203631792E+01  1.677007128100E+01  1.620917492310E+01  1.564397282528E+01
  1.507508575685E+01  1.450315275700E+01  1.392882845075E+01  1.335278020677E+01
  1.277568516111E+01  1.219822713339E+01  1.162109346371E+01  1.104497179992E+01
  1.047054686591E+01  9.898497242254E+00  9.329492190424E+00  8.764188551678E+00
  8.203227750750E+00  7.647232933487E+00  7.096806265991E+00  6.552526421055E+00
  6.014946275647E+00  5.484590840980E+00  4.961955444353E+00  4.447504179559E+00
  3.941668640234E+00  3.444846948129E+00  2.957403085996E+00  2.479666542555E+00
  2.011932274908E+00  1.554460991756E+00  1.107479758854E+00  8.879848916681E-01
  6.711829262320E-01  4.570932490069E-01  2.457333748234E-01  3.711900297347E-02
 -1.687359219381E-01 -3.718191444595E-01 -5.721200281624E-01 -7.696294810178E-01
 -9.643398763917E-01 -1.156244969792E+00 -1.345339811511E+00 -1.531620655326E+00
 -1.715084863454E+00 -1.895730807949E+00 -2.073557768791E+00 -2.248565828914E+00
 -2.420755766463E+00 -2.590128944587E+00 -2.756687199137E+00 -2.920432724631E+00
 -3.081367958923E+00 -3.239495467041E+00 -3.394817824685E+00 -3.547337501950E+00
 -3.697056747861E+00 -3.843977476364E+00 -3.988101154479E+00 -4.129428693333E+00
 -4.267960342896E+00 -4.403695591241E+00 -4.536633069244E+00 -4.666770461636E+00
 -4.794104425413E+00 -4.918630516658E+00 -5.040343126768E+00 -5.159235429249E+00
 -5.275299338174E+00 -5.388525479427E+00 -5.498903175871E+00 -5.606420447580E+00
 -5.711064028207E+00 -5.812819398569E+00 -5.911670838430E+00 -6.007601497399E+00
 -6.100593485743E+00 -6.190627985793E+00 -6.277685384435E+00 -6.361745427017E+00
 -6.442787392737E+00 -6.520790291335E+00 -6.595733080620E+00 -6.667594903983E+00
 -6.736355346710E+00 -6.801994709464E+00 -6.864494296859E+00 -6.923836718540E+00
 -6.980006199671E+00 -7.032988897173E+00 -7.082773217463E+00 -7.129350130857E+00
 -7.172713477225E+00 -7.212860256858E+00 -7.249790899977E+00 -7.283509507783E+00
 -7.314024057491E+00 -7.341346563436E+00 -7.365493186071E+00 -7.386484280597E+00
 -7.404344377052E+00 -7.419102083947E+00 -7.430789908156E+00 -7.439443984575E+00
 -7.445103710277E+00 -7.447811279466E+00 -7.447611117509E+00 -7.444549214774E+00
 -7.438672363882E+00 -7.430027307401E+00 -7.418659806876E+00 -7.404613648460E+00
 -7.387929605197E+00 -7.368644381227E+00 -7.346789568634E+00 -7.322390653335E+00