<?xml version="1.0" encoding="UTF-8" ?>
<psml version="1.1" energy_unit="hartree" length_unit="bohr"
 uuid="f90b6860-539f-11e8-5b56-8200ed6e873a"
 xmlns="http://esl.cecam.org/PSML/ns/1.1">
<provenance creator="ONCVPSP-3.3.0+psml-3.3.0-73 (fully-relativistic)"
 date="2018-05-09">
<annotation action="semilocal-pseudopotential-generation"
 action-cont="projectors-generation" />
<input-file name="oncvpsp-input">
<![CDATA[# atsym z nc nv iexc psfile
Pb 82 12 3 -116133 upf
# n l f
1 0 2.0
2 0 2.0
2 1 6.0
3 0 2.0
3 1 6.0
3 2 10.0
4 0 2.0
4 1 6.0
4 2 10.0
5 0 2.0
5 1 6.0
4 3 14.0
5 2 10.0
6 0 2.0
6 1 2.0
# lmax
2
# l rc ep ncon nbas qcut
0 2.4 0.0 4 7 3.2
1 2.4 0.0 4 8 6.1
2 2.1 0.0 4 7 7.2
# lloc lpopt rc5 dvloc0
4 5 2.1 0.0
# l nproj debl
0 2 2.7
1 2 2.7
2 2 1.0
# icmod fcfact rcfact
3 6.0 1.34
# epsh1 epsh2 depsh
-15.0 12.0 0.02
# rlmax drl
6.0 0.01
 0
]]>
</input-file>
</provenance>
<pseudo-atom-spec atomic-label="Pb" atomic-number="82" z-pseudo="14"
 flavor="Hamann&apos;s oncvpsp" relativity="dirac" spin-dft="no"
 core-corrections="yes">
<annotation pseudo-energy="-60.1594237520" />
<exchange-correlation>
<annotation oncvpsp-xc-code="-116133" oncvpsp-xc-type="libxc-interface" />
<libxc-info number-of-functionals="2">
<functional name="Perdew, Burke &amp; Ernzerhof SOL (GGA)" type="exchange"
 id="116" />
<functional name="Perdew, Burke &amp; Ernzerhof SOL (GGA)" type="correlation"
 id="133" />
</libxc-info>
</exchange-correlation>
<valence-configuration total-valence-charge="14">
<shell n="5" l="d" occupation="10" />
<shell n="6" l="s" occupation="2" />
<shell n="6" l="p" occupation="2" />
</valence-configuration>
</pseudo-atom-spec>
<grid npts="457">
<annotation type="sampled from oncvpsp log grid"
 recipe="r(i:1..N) = r1*exp(a*(i-1)) + r=0; resampled"
 recipe-cont="r1: scale; a: step" scale="0.609756097561E-05"
 step="0.119285708653E-01" delta="0.500000000000E-02" rmax="44.0711828530" />
<grid-data>
  0.000000000000E+00  5.032510521928E-03  1.005204483031E-02  1.507967014897E-02
  2.031910874069E-02  2.548791981066E-02  3.084768604356E-02  3.602211884327E-02
  4.107285502462E-02  4.627644805099E-02  5.152104103689E-02  5.667985490806E-02
  6.235522201693E-02  6.778543968363E-02  7.281477174075E-02  7.821725444879E-02
  8.402057367273E-02  8.918425832686E-02  9.466528953126E-02  1.004831705747E-01
  1.066586033671E-01  1.118711087980E-01  1.173383542312E-01  1.230727890481E-01
  1.290874710433E-01  1.353960961578E-01  1.420130296658E-01  1.471870937611E-01
  1.525496683003E-01  1.581076214217E-01  1.638680714953E-01  1.698383962400E-01
  1.760262421726E-01  1.824395344007E-01  1.890864867735E-01  1.959756124011E-01
  2.031157345580E-01  2.105159979834E-01  2.155986962387E-01  2.208041111607E-01
  2.261352056205E-01  2.315950140250E-01  2.371866440437E-01  2.429132783775E-01
  2.487781765706E-01  2.547846768657E-01  2.609361981040E-01  2.672362416710E-01
  2.736883934899E-01  2.802963260623E-01  2.870638005588E-01  2.939946689595E-01
  3.010928762468E-01  3.083624626509E-01  3.158075659492E-01  3.234324238214E-01
  3.312413762622E-01  3.392388680507E-01  3.474294512809E-01  3.558177879526E-01
  3.644086526249E-01  3.732069351339E-01  3.822176433758E-01  3.914459061574E-01
  4.008969761157E-01  4.105762327070E-01  4.204891852695E-01  4.255350554928E-01
  4.306414761587E-01  4.358091738726E-01  4.410388839590E-01  4.463313505666E-01
  4.516873267734E-01  4.571075746946E-01  4.625928655910E-01  4.681439799781E-01
  4.737617077378E-01  4.794468482307E-01  4.852002104094E-01  4.910226129343E-01
  4.969148842895E-01  5.028778629010E-01  5.089123972558E-01  5.150193460229E-01
  5.211995781752E-01  5.274539731133E-01  5.337834207906E-01  5.401888218401E-01
  5.466710877022E-01  5.532311407546E-01  5.598699144437E-01  5.665883534170E-01
  5.733874136580E-01  5.802680626219E-01  5.872312793734E-01  5.942780547259E-01
  6.014093913826E-01  6.086263040792E-01  6.159298197281E-01  6.233209775648E-01
  6.308008292956E-01  6.383704392472E-01  6.460308845181E-01  6.537832551324E-01
  6.616286541939E-01  6.695681980443E-01  6.776030164208E-01  6.857342526179E-01
  6.939630636493E-01  7.022906204131E-01  7.107181078580E-01  7.192467251523E-01
  7.278776858541E-01  7.366122180844E-01  7.454515647014E-01  7.543969834778E-01
  7.634497472795E-01  7.726111442469E-01  7.818824779779E-01  7.912650677136E-01
  8.007602485262E-01  8.103693715085E-01  8.200938039666E-01  8.299349296142E-01
  8.398941487695E-01  8.499728785548E-01  8.601725530974E-01  8.704946237346E-01
  8.809405592194E-01  8.915118459301E-01  9.022099880812E-01  9.130365079382E-01
  9.239929460335E-01  9.350808613859E-01  9.463018317225E-01  9.576574537032E-01
  9.691493431476E-01  9.807791352654E-01  9.925484848885E-01  1.004459066707E+00
  1.016512575508E+00  1.028710726414E+00  1.041055255131E+00  1.053547918192E+00
  1.066190493211E+00  1.078984779129E+00  1.091932596479E+00  1.105035787636E+00
  1.118296217088E+00  1.131715771693E+00  1.145296360953E+00  1.159039917285E+00
  1.172948396292E+00  1.187023777048E+00  1.201268062372E+00  1.215683279121E+00
  1.230271478470E+00  1.245034736212E+00  1.259975153047E+00  1.275094854883E+00
  1.290395993142E+00  1.305880745059E+00  1.321551314000E+00  1.337409929768E+00
  1.353458848925E+00  1.369700355112E+00  1.386136759374E+00  1.402770400486E+00
  1.419603645292E+00  1.436638889036E+00  1.453878555704E+00  1.471325098372E+00
  1.488980999553E+00  1.506848771548E+00  1.524930956806E+00  1.543230128288E+00
  1.561748889827E+00  1.580489876505E+00  1.599455755023E+00  1.618649224084E+00
  1.638073014773E+00  1.657729890950E+00  1.677622649641E+00  1.697754121437E+00
  1.718127170894E+00  1.738744696945E+00  1.759609633308E+00  1.780724948908E+00
  1.802093648295E+00  1.823718772074E+00  1.845603397339E+00  1.867750638107E+00
  1.890163645765E+00  1.912845609514E+00  1.935799756828E+00  1.959029353910E+00
  1.982537706157E+00  2.006328158631E+00  2.030404096534E+00  2.054768945693E+00
  2.079426173041E+00  2.104379287117E+00  2.129631838563E+00  2.155187420626E+00
  2.181049669673E+00  2.207222265709E+00  2.233708932898E+00  2.260513440092E+00
  2.287639601374E+00  2.315091276590E+00  2.342872371909E+00  2.370986840372E+00
  2.399438682457E+00  2.428231946646E+00  2.457370730006E+00  2.486859178766E+00
  2.516701488911E+00  2.546901906778E+00  2.577464729659E+00  2.608394306415E+00
  2.639695038092E+00  2.671371378549E+00  2.703427835092E+00  2.735868969113E+00
  2.768699396742E+00  2.801923789503E+00  2.835546874977E+00  2.869573437477E+00
  2.904008318727E+00  2.938856418551E+00  2.974122695574E+00  3.009812167921E+00
  3.045929913936E+00  3.082481072903E+00  3.119470845778E+00  3.156904495927E+00
  3.194787349879E+00  3.233124798077E+00  3.271922295654E+00  3.311185363202E+00
  3.350919587560E+00  3.391130622611E+00  3.431824190082E+00  3.473006080363E+00
  3.514682153328E+00  3.556858339168E+00  3.599540639238E+00  3.642735126908E+00
  3.686447948431E+00  3.730685323813E+00  3.775453547698E+00  3.820758990271E+00
  3.866608098154E+00  3.913007395332E+00  3.959963484076E+00  4.007483045885E+00
  4.055572842435E+00  4.104239716545E+00  4.153490593143E+00  4.203332480261E+00
  4.253772470024E+00  4.304817739664E+00  4.356475552540E+00  4.408753259171E+00
  4.461658298281E+00  4.515198197860E+00  4.569380576234E+00  4.624213143149E+00
  4.679703700867E+00  4.735860145277E+00  4.792690467021E+00  4.850202752625E+00
  4.908405185656E+00  4.967306047884E+00  5.026913720459E+00  5.087236685104E+00
  5.148283525326E+00  5.210062927630E+00  5.272583682761E+00  5.335854686954E+00
  5.399884943198E+00  5.464683562516E+00  5.530259765266E+00  5.596622882449E+00
  5.663782357039E+00  5.731747745323E+00  5.800528718267E+00  5.870135062886E+00
  5.940576683641E+00  6.011863603845E+00  6.084005967091E+00  6.157014038696E+00
  6.230898207160E+00  6.305668985646E+00  6.381337013474E+00  6.457913057636E+00
  6.535408014327E+00  6.613832910499E+00  6.693198905425E+00  6.773517292290E+00
  6.854799499798E+00  6.937057093795E+00  7.020301778921E+00  7.104545400268E+00
  7.189799945071E+00  7.276077544412E+00  7.363390474945E+00  7.451751160644E+00
  7.541172174572E+00  7.631666240667E+00  7.723246235555E+00  7.815925190382E+00
  7.909716292666E+00  8.004632888178E+00  8.100688482836E+00  8.197896744630E+00
  8.296271505566E+00  8.395826763633E+00  8.496576684796E+00  8.598535605014E+00
  8.701718032274E+00  8.806138648661E+00  8.911812312445E+00  9.018754060195E+00
  9.126979108917E+00  9.236502858224E+00  9.347340892523E+00  9.459508983233E+00
  9.573023091032E+00  9.687899368124E+00  9.804154160542E+00  9.921804010468E+00
  1.004086565859E+01  1.016135604650E+01  1.028329231905E+01  1.040669182688E+01
  1.053157212881E+01  1.065795099435E+01  1.078584640628E+01  1.091527656316E+01
  1.104625988192E+01  1.117881500050E+01  1.131296078051E+01  1.144871630987E+01
  1.158610090559E+01  1.172513411646E+01  1.186583572586E+01  1.200822575457E+01
  1.215232446362E+01  1.229815235718E+01  1.244573018547E+01  1.259507894770E+01
  1.274621989507E+01  1.289917453381E+01  1.305396462821E+01  1.321061220375E+01
  1.336913955020E+01  1.352956922480E+01  1.369192405550E+01  1.385622714416E+01
  1.402250186989E+01  1.419077189233E+01  1.436106115504E+01  1.453339388890E+01
  1.470779461557E+01  1.488428815096E+01  1.506289960877E+01  1.524365440407E+01
  1.542657825692E+01  1.561169719600E+01  1.579903756236E+01  1.598862601310E+01
  1.618048952526E+01  1.637465539956E+01  1.657115126436E+01  1.677000507953E+01
  1.697124514049E+01  1.717490008217E+01  1.738099888316E+01  1.758957086976E+01
  1.780064572019E+01  1.801425346883E+01  1.823042451046E+01  1.844918960459E+01
  1.867057987984E+01  1.889462683840E+01  1.912136236046E+01  1.935081870879E+01
  1.958302853329E+01  1.981802487569E+01  2.005584117420E+01  2.029651126829E+01
  2.054006940351E+01  2.078655023635E+01  2.103598883919E+01  2.128842070526E+01
  2.154388175372E+01  2.180240833477E+01  2.206403723478E+01  2.232880568160E+01
  2.259675134978E+01  2.286791236598E+01  2.314232731437E+01  2.342003524214E+01
  2.370107566505E+01  2.398548857303E+01  2.427331443590E+01  2.456459420913E+01
  2.485936933964E+01  2.515768177172E+01  2.545957395298E+01  2.576508884042E+01
  2.607426990650E+01  2.638716114538E+01  2.670380707912E+01  2.702425276407E+01
  2.734854379724E+01  2.767672632281E+01  2.800884703868E+01  2.834495320315E+01
  2.868509264158E+01  2.902931375328E+01  2.937766551832E+01  2.973019750454E+01
  3.008695987460E+01  3.044800339309E+01  3.081337943381E+01  3.118313998701E+01
  3.155733766686E+01  3.193602571886E+01  3.231925802749E+01  3.270708912382E+01
  3.309957419330E+01  3.349676908362E+01  3.389873031263E+01  3.430551507638E+01
  3.471718125729E+01  3.513378743238E+01  3.555539288157E+01  3.598205759615E+01
  3.641384228730E+01  3.685080839475E+01  3.729301809549E+01  3.774053431263E+01
  3.819342072439E+01  3.865174177308E+01  3.911556267436E+01  3.958494942645E+01
  4.005996881956E+01  4.054068844540E+01  4.102717670674E+01  4.151950282723E+01
  4.201773686115E+01  4.252194970349E+01  4.303221309993E+01  4.354859965713E+01
  4.407118285301E+01
</grid-data>
</grid>
<valence-charge total-charge="14" is-unscreening-charge="yes"
 rescaled-to-z-pseudo="no">
<radfunc>
<data npts="457">
  1.882817389826E-02  1.883281017398E-02  1.884753700999E-02  1.887500025120E-02
  1.892184790624E-02  1.899293386811E-02  1.910190942239E-02  1.925198466832E-02
  1.945296620783E-02  1.973043243241E-02  2.009878701101E-02  2.056597210616E-02
  2.122342915880E-02  2.201849462995E-02  2.292329185420E-02  2.410234913634E-02
  2.564148268041E-02  2.727958646822E-02  2.932919463353E-02  3.189535179171E-02
  3.510980266200E-02  3.825774443725E-02  4.202865800737E-02  4.654594406608E-02
  5.195699992253E-02  5.843769049491E-02  6.619758304147E-02  7.300530292432E-02
  8.079404008657E-02  8.970266591039E-02  9.988888889252E-02  1.115315984829E-01
  1.248334484662E-01  1.400236911020E-01  1.573612698401E-01  1.771381735934E-01
  1.996830489168E-01  2.253650576074E-01  2.444316098180E-01  2.652098080901E-01
  2.878443553406E-01  3.124907631234E-01  3.393159367309E-01  3.684987551435E-01
  4.002306378953E-01  4.347160894339E-01  4.721732098723E-01  5.128341591636E-01
  5.569455596612E-01  6.047688197502E-01  6.565803587554E-01  7.126717106355E-01
  7.733494810872E-01  8.389351296091E-01  9.097645448460E-01  9.861873781839E-01
  1.068566097147E+00  1.157274716728E+00  1.252697163442E+00  1.355225223757E+00
  1.465256025743E+00  1.583189000443E+00  1.709422267863E+00  1.844348391747E+00
  1.988349447763E+00  2.141791351727E+00  2.305017398250E+00  2.390398791603E+00
  2.478340966246E+00  2.568877081101E+00  2.662037356391E+00  2.757848769598E+00
  2.856334737368E+00  2.957514783471E+00  3.061404193042E+00  3.168013653423E+00
  3.277348882028E+00  3.389410241797E+00  3.504192344915E+00  3.621683645623E+00
  3.741866023121E+00  3.864714355677E+00  3.990196087306E+00  4.118270788491E+00
  4.248889712688E+00  4.381995350498E+00  4.517520983662E+00  4.655390241235E+00
  4.795516660522E+00  4.937803255623E+00  5.082142096665E+00  5.228413903063E+00
  5.376487654387E+00  5.526220222693E+00  5.677456030401E+00  5.830026738064E+00
  5.983750966619E+00  6.138434058904E+00  6.293867885482E+00  6.449830699971E+00
  6.606087049254E+00  6.762387744093E+00  6.918469895768E+00  7.074057024424E+00
  7.228859244830E+00  7.382573535246E+00  7.534884094957E+00  7.685462795945E+00
  7.833969733889E+00  7.980053883436E+00  8.123353862273E+00  8.263498808082E+00
  8.400109371896E+00  8.532798830727E+00  8.661174321555E+00  8.784838197935E+00
  8.903389509483E+00  9.016425603440E+00  9.123543846309E+00  9.224343462294E+00
  9.318427483845E+00  9.405404808158E+00  9.484892351864E+00  9.556517294532E+00
  9.619919399856E+00  9.674753401665E+00  9.720691440095E+00  9.757425531452E+00
  9.784670053553E+00  9.802164226570E+00  9.809674567776E+00  9.806997297039E+00
  9.793960668516E+00  9.770427202790E+00  9.736295792711E+00  9.691503655446E+00
  9.636028102854E+00  9.569888102164E+00  9.493145599260E+00  9.405906577541E+00
  9.308321826474E+00  9.200587395559E+00  9.082944711491E+00  8.955680338918E+00
  8.819125368251E+00  8.673654417583E+00  8.519684239809E+00  8.357671930572E+00
  8.188112737564E+00  8.011537476968E+00  7.828509568425E+00  7.639621705628E+00
  7.445492185558E+00  7.246760925273E+00  7.044085200903E+00  6.838135149129E+00
  6.629589076579E+00  6.419128627319E+00  6.207433862711E+00  5.995178311289E+00
  5.783024048764E+00  5.571616869852E+00  5.361581614031E+00  5.153517706729E+00
  4.947994975571E+00  4.745549798311E+00  4.546681634877E+00  4.351849990594E+00
  4.161471851305E+00  3.975919623737E+00  3.795519606371E+00  3.620551007275E+00
  3.451245516243E+00  3.287787429118E+00  3.130314312865E+00  2.978918190781E+00
  2.833647218619E+00  2.694507814418E+00  2.561467197763E+00  2.434456288194E+00
  2.313372907629E+00  2.198085228075E+00  2.088435403664E+00  1.984243325024E+00
  1.885310434299E+00  1.791423540514E+00  1.702358577424E+00  1.617884249286E+00
  1.537765513955E+00  1.461766857259E+00  1.389655317464E+00  1.321203223776E+00
  1.256190618069E+00  1.194407334366E+00  1.135654715983E+00  1.079746955727E+00
  1.026512050189E+00  9.757923650266E-01  9.274448143881E-01  8.813406642437E-01
  8.373649764711E-01  7.954157180330E-01  7.554021982956E-01  7.172419019158E-01
  6.808568575557E-01  6.461730540122E-01  6.131201773753E-01  5.816310658362E-01
  5.516412832202E-01  5.230886981869E-01  4.959131024052E-01  4.700558795658E-01
  4.454597367965E-01  4.220685079252E-01  3.998271359357E-01  3.786821347738E-01
  3.585822808132E-01  3.394786662140E-01  3.213244905648E-01  3.040750437723E-01
  2.876876188267E-01  2.721214356228E-01  2.573375645457E-01  2.432988511499E-01
  2.299698422324E-01  2.173167135525E-01  2.053071994042E-01  1.939105242103E-01
  1.830973362295E-01  1.728396435505E-01  1.631107523589E-01  1.538852075575E-01
  1.451387357494E-01  1.368481905810E-01  1.289915004265E-01  1.215476183777E-01
  1.144964744950E-01  1.078189302603E-01  1.014967351693E-01  9.551248539016E-02
  8.984958441272E-02  8.449220560871E-02  7.942525662059E-02  7.463434549597E-02
  7.010574848423E-02  6.582637941256E-02  6.178376056012E-02  5.796599495099E-02
  5.436173998887E-02  5.096018235887E-02  4.775101412724E-02  4.472440996949E-02
  4.187100546417E-02  3.918187639204E-02  3.664851898413E-02  3.426283106624E-02
  3.201709405116E-02  2.990395573344E-02  2.791641384533E-02  2.604780033582E-02
  2.429176633788E-02  2.264226779108E-02  2.109355169716E-02  1.964014296857E-02
  1.827683185933E-02  1.699866194924E-02  1.580091866197E-02  1.467911829756E-02
  1.362899756095E-02  1.264650356852E-02  1.172778431524E-02  1.086917958513E-02
  1.006721228750E-02  9.318580201532E-03  8.620148111259E-03  7.968940312825E-03
  7.362133475582E-03  6.797049838450E-03  6.271150722858E-03  5.782030343702E-03
  5.327409900022E-03  4.905131927555E-03  4.513154895981E-03  4.149548034476E-03
  3.812486370179E-03  3.500245965253E-03  3.211199339433E-03  2.943811066165E-03
  2.696633531746E-03  2.468302848095E-03  2.257534911030E-03  2.063121597054E-03
  1.883927092734E-03  1.718884351703E-03  1.566991675183E-03  1.427309412641E-03
  1.298956779807E-03  1.181108791780E-03  1.072993309330E-03  9.738881967908E-04
  8.831185900893E-04  8.000542736079E-04  7.241071645521E-04  6.547289034864E-04
  5.914085495992E-04  5.336703791283E-04  4.810717852142E-04  4.332012772636E-04
  3.896765777054E-04  3.501428138213E-04  3.142708021289E-04  2.817554226104E-04
  2.523140798998E-04  2.256852483929E-04  2.016270981142E-04  1.799161980757E-04
  1.603462937931E-04  1.427271555899E-04  1.268834943102E-04  1.126539410907E-04
  9.989008788983E-05  8.845558555637E-05  7.822529631535E-05  6.908449767217E-05
  6.092813486573E-05  5.366011914541E-05  4.719266929468E-05  4.144569397399E-05
  3.634621260481E-05  3.182781266028E-05  2.783014136627E-05  2.429842994531E-05
  2.118304865570E-05  1.843909098733E-05  1.602598547455E-05  1.390713367503E-05
  1.204957294209E-05  1.042366268801E-05  9.002792897128E-06  7.763113702302E-06
  6.683284886849E-06  5.744244217527E-06  4.928993553976E-06  4.222401716583E-06
  3.611023129294E-06  3.082931286847E-06  2.627566128131E-06  2.235594429076E-06
  1.898782360239E-06  1.609879386181E-06  1.362512716081E-06  1.151091547763E-06
  9.707203806112E-07  8.171207064253E-07  6.865604212526E-07  5.757903353180E-07
  4.819871923109E-07  4.027026432567E-07  3.358176538416E-07  2.795018572040E-07
  2.321773966814E-07  1.924868346571E-07  1.592647343496E-07  1.315125510055E-07
  1.083764973904E-07  8.912807563814E-08  7.314699335504E-08  5.990620632684E-08
  4.895885322618E-08  3.992686934254E-08  3.249108656583E-08  2.638264566091E-08
  2.137556430258E-08  1.728032043604E-08  1.393832533307E-08  1.121717428160E-08
  9.006575235195E-09  7.214867019860E-09  5.766048915231E-09  4.597252660178E-09
  3.656596247289E-09  2.901366332237E-09  2.296482758474E-09  1.813204648328E-09
  1.428042799920E-09  1.121847813998E-09  8.790475114594E-10  6.870108437220E-10
  5.355186933519E-10  4.163247574005E-10  3.227921433110E-10  2.495934261332E-10
  1.924637521104E-10  1.479981602040E-10  1.134856595656E-10  8.677377422821E-11
  6.615827056012E-11  5.029363998483E-11  3.812063843956E-11  2.880780221418E-11
  2.170438237035E-11  1.630258028776E-11  1.220733677785E-11  9.112236927463E-12
  6.780351343611E-12  5.029049536498E-12  3.717999521935E-12  2.739715130961E-12
  2.012133949393E-12  1.472808515864E-12  1.074374997358E-12  7.810301014638E-13
  5.658010654869E-13  4.084373654451E-13  2.937881427012E-13  2.105577815513E-13
  1.503548604288E-13  1.069678980683E-13  7.581579606213E-14  5.353235834398E-14
  3.765333453704E-14  2.638156794549E-14  1.841142132837E-14  1.279802018037E-14
  8.860250144325E-15  6.109076976105E-15  4.194788612158E-15  2.868320123818E-15
  1.953017534312E-15  1.324107696703E-15  8.938332737523E-16  6.007349374744E-16
  4.019567076078E-16  2.677455514389E-16  1.775366979627E-16  1.171798446950E-16
  7.698255712698E-17  5.033636180343E-17  3.275642773342E-17  2.121345049193E-17
  1.366490317577E-17  8.763175076153E-18  5.591623900319E-18  3.549846981268E-18
  2.242073636246E-18  1.408742626186E-18  8.804964057081E-19  5.474063695408E-19
  3.384933366698E-19  2.081706591430E-19  1.273175736364E-19  7.743298072876E-20
  4.682739840927E-20  0.000000000000E+00  0.000000000000E+00  0.000000000000E+00
  0.000000000000E+00
</data>
</radfunc>
</valence-charge>
<pseudocore-charge matching-radius="1.05354791819"
 number-of-continuous-derivatives="4">
<annotation model-charge-form="Teter function with specified parameters" />
<radfunc>
<data npts="290">
  5.595767090148E+01  5.595542434548E+01  5.594870833701E+01  5.593750273519E+01
  5.592105815951E+01  5.590007183910E+01  5.587331907432E+01  5.584267660431E+01
  5.580821189464E+01  5.576800647869E+01  5.572266983482E+01  5.567337002634E+01
  5.561375776305E+01  5.555146304749E+01  5.548919556622E+01  5.541742667373E+01
  5.533472095212E+01  5.525626344736E+01  5.516799082306E+01  5.506869298646E+01
  5.495701543998E+01  5.485774786270E+01  5.474873455911E+01  5.462904006308E+01
  5.449764359517E+01  5.435343223262E+01  5.419519374121E+01  5.406652032896E+01
  5.392861868934E+01  5.378085235261E+01  5.362254485108E+01  5.345297781730E+01
  5.327138909426E+01  5.307697087973E+01  5.286886793097E+01  5.264617586090E+01
  5.240793956253E+01  5.215315180468E+01  5.197357654469E+01  5.178584725485E+01
  5.158962554618E+01  5.138456218397E+01  5.117029707900E+01  5.094645932332E+01
  5.071266727622E+01  5.046852870662E+01  5.021364099848E+01  4.994759142629E+01
  4.966995750849E+01  4.938030744694E+01  4.907820066143E+01  4.876318842846E+01
  4.843481463455E+01  4.809261665442E+01  4.773612636552E+01  4.736487131035E+01
  4.697837601918E+01  4.657616350558E+01  4.615775694833E+01  4.572268157284E+01
  4.527046674617E+01  4.480064829939E+01  4.431277109110E+01  4.380639182585E+01
  4.328108214052E+01  4.273643197128E+01  4.217205321242E+01  4.188235130147E+01
  4.158758367740E+01  4.128770981752E+01  4.098269137035E+01  4.067249230641E+01
  4.035707907420E+01  4.003642076104E+01  3.971048925900E+01  3.937925943576E+01
  3.904270931039E+01  3.870082023393E+01  3.835357707469E+01  3.800096840827E+01
  3.764298671189E+01  3.727962856319E+01  3.691089484298E+01  3.653679094201E+01
  3.615732697128E+01  3.577251797572E+01  3.538238415083E+01  3.498695106204E+01
  3.458624986622E+01  3.418031753507E+01  3.376919707975E+01  3.335293777633E+01
  3.293159539138E+01  3.250523240720E+01  3.207391824588E+01  3.163772949150E+01
  3.119675010972E+01  3.075107166390E+01  3.030079352679E+01  2.984602308694E+01
  2.938687594866E+01  2.892347612464E+01  2.845595621989E+01  2.798445760599E+01
  2.750913058419E+01  2.703013453628E+01  2.654763806152E+01  2.606181909861E+01
  2.557286503077E+01  2.508097277271E+01  2.458634883779E+01  2.408920938360E+01
  2.358978023450E+01  2.308829687925E+01  2.258500444202E+01  2.208015762499E+01
  2.157402062087E+01  2.106686699331E+01  2.055897952376E+01  2.005065002262E+01
  1.954217910330E+01  1.903387591731E+01  1.852605784866E+01  1.801905016630E+01
  1.751318563282E+01  1.700880406817E+01  1.650625186727E+01  1.600588147019E+01
  1.550805078417E+01  1.501312255667E+01  1.452146369900E+01  1.403344456012E+01
  1.354943815081E+01  1.306981931830E+01  1.259496387212E+01  1.212524766197E+01
  1.166104560907E+01  1.120273069251E+01  1.075067289295E+01  1.030523809595E+01
  9.866786958250E+00  9.435673740221E+00  9.012245108671E+00  8.596838914427E+00
  8.189782949725E+00  7.791393690978E+00  7.401975032984E+00  7.021817021182E+00
  6.651194589074E+00  6.290366308422E+00  5.939573160322E+00  5.599037335672E+00
  5.268961073991E+00  4.949525549880E+00  4.640889816721E+00  4.343189817458E+00
  4.056537472453E+00  3.781019854485E+00  3.516698460949E+00  3.263608593182E+00
  3.021758852604E+00  2.791130763005E+00  2.571678527816E+00  2.363328930582E+00
  2.165981386074E+00  1.979508148566E+00  1.803754682742E+00  1.638540201474E+00
  1.483658373364E+00  1.338878201413E+00  1.203945072579E+00  1.078581976201E+00
  9.624908873864E-01  8.553543095322E-01  7.568369680819E-01  6.665876455664E-01
  5.842411458729E-01  5.094203736118E-01  4.417385124222E-01  3.808012841181E-01
  3.262092687661E-01  2.775602641482E-01  2.344516616353E-01  1.964828143312E-01
  1.632573724788E-01  1.343855605913E-01  1.094863706232E-01  8.818964575450E-02
  7.013803005993E-02  5.498876049091E-02  4.241527921903E-02  3.210864648361E-02
  2.377873663736E-02  1.715520307333E-02  1.198820110876E-02  8.048861648120E-03
  5.129512487503E-03  3.043648381278E-03  1.625655382357E-03  7.302993922249E-04
  2.319932092926E-04  2.386053096993E-05  1.661922935326E-05  1.373096657246E-04
  3.278967222032E-04  5.437765049655E-04  7.522202201729E-04  9.307884658785E-04
  1.065749066930E-03  1.150530576811E-03  1.184241680856E-03  1.170283990880E-03
  1.115082186429E-03  1.026951229643E-03  9.151155879114E-04  7.888901982779E-04
  6.570274810902E-04  5.272292565164E-04  4.058171449926E-04  2.975501509508E-04
  2.055738387155E-04  1.314819910174E-04  7.546904493133E-05  3.655003832774E-05
  1.282433527946E-05  1.760040314034E-06  4.777102704132E-07  6.014622215049E-06
  1.555429521064E-05  2.660998407606E-05  3.715521937880E-05  4.569889202816E-05
  5.130659952076E-05  5.357372327887E-05  5.255876309367E-05  4.868763484547E-05
  4.264082473052E-05  3.523544521433E-05  2.731339299514E-05  1.964508459264E-05
  1.285582906855E-05  7.379034492667E-06  3.437415410444E-06  1.050463587334E-06
  6.393761692697E-08  1.952484811836E-07  1.087529850263E-06  2.364960149385E-06
  3.682529633086E-06  4.764807413587E-06  5.430166083690E-06  5.599110846471E-06
  5.287551945571E-06  4.587775411372E-06  3.641271006541E-06  2.608304340207E-06
  1.639105072013E-06  8.508237622492E-07  3.131262797674E-07  4.366779671863E-08
  0.000000000000E+00  0.000000000000E+00  0.000000000000E+00  0.000000000000E+00
  0.000000000000E+00  0.000000000000E+00  0.000000000000E+00  0.000000000000E+00
  0.000000000000E+00  0.000000000000E+00  0.000000000000E+00  0.000000000000E+00
  0.000000000000E+00  0.000000000000E+00  0.000000000000E+00  0.000000000000E+00
  0.000000000000E+00  0.000000000000E+00  0.000000000000E+00  0.000000000000E+00
  0.000000000000E+00  0.000000000000E+00  0.000000000000E+00  0.000000000000E+00
  0.000000000000E+00  0.000000000000E+00  0.000000000000E+00  0.000000000000E+00
  0.000000000000E+00  0.000000000000E+00
</data>
</radfunc>
</pseudocore-charge>
<semilocal-potentials set="lj">
<slps n="6" l="s" j="0.5" rc="2.42823194665" eref="-0.442494262455">
<radfunc>
<data npts="290">
  3.916711842815E+00  3.914429811890E+00  3.907610879127E+00  3.896243951627E+00
  3.879586136553E+00  3.858368204808E+00  3.831385864612E+00  3.800570537549E+00
  3.766025850458E+00  3.725879469765E+00  3.680805045064E+00  3.632024224893E+00
  3.573362523796E+00  3.512435878521E+00  3.451915243603E+00  3.382625889249E+00
  3.303390308476E+00  3.228824494228E+00  3.145620396752E+00  3.052886489071E+00
  2.949666948711E+00  2.858859866993E+00  2.760144487683E+00  2.652952611999E+00
  2.536698604086E+00  2.410783778795E+00  2.274601941703E+00  2.165362561805E+00
  2.049752784494E+00  1.927523534262E+00  1.798432874346E+00  1.662248822777E+00
  1.518752451656E+00  1.367741264881E+00  1.209032842624E+00  1.042468732947E+00
  8.679185620465E-01  6.852843249063E-01  5.590051403745E-01  4.290968529588E-01
  2.955600830479E-01  1.584047901737E-01  1.765085354963E-02 -1.266713620303E-01
 -2.745204606089E-01 -4.258434957417E-01 -5.805754835831E-01 -7.386389546667E-01
 -8.999435507290E-01 -1.064385672886E+00 -1.231848187359E+00 -1.402200194702E+00
 -1.575296868186E+00 -1.750979366517E+00 -1.929074825570E+00 -2.109396433150E+00
 -2.291743590089E+00 -2.475902160153E+00 -2.661644810383E+00 -2.848731442539E+00
 -3.036909715398E+00 -3.225915656647E+00 -3.415474362216E+00 -3.605300779956E+00
 -3.795100573764E+00 -3.984571063495E+00 -4.173402235430E+00 -4.267479456052E+00
 -4.361277817569E+00 -4.454756994211E+00 -4.547876413759E+00 -4.640595295781E+00
 -4.732872690544E+00 -4.824667518566E+00 -4.915938610773E+00 -5.006644749209E+00
 -5.096744708274E+00 -5.186197296456E+00 -5.274961398517E+00 -5.362996018128E+00
 -5.450260320914E+00 -5.536713677914E+00 -5.622315709429E+00 -5.707026329263E+00
 -5.790805789365E+00 -5.873614724867E+00 -5.955414199550E+00 -6.036165751743E+00
 -6.115831440696E+00 -6.194373893456E+00 -6.271756352291E+00 -6.347942722703E+00
 -6.422897622092E+00 -6.496586429129E+00 -6.568975333894E+00 -6.640031388864E+00
 -6.709722560813E+00 -6.778017783705E+00 -6.844887012657E+00 -6.910301279061E+00
 -6.974232746933E+00 -7.036654770577E+00 -7.097541953632E+00 -7.156870209580E+00
 -7.214616823765E+00 -7.270760516991E+00 -7.325281510714E+00 -7.378161593871E+00
 -7.429384191340E+00 -7.478934433995E+00 -7.526799230326E+00 -7.572967339518E+00
 -7.617429445878E+00 -7.660178234430E+00 -7.701208467452E+00 -7.740517061694E+00
 -7.778103165900E+00 -7.813968238245E+00 -7.848116123164E+00 -7.880553126999E+00
 -7.911288091777E+00 -7.940332466335E+00 -7.967700373901E+00 -7.993408675125E+00
 -8.017477025451E+00 -8.039927925572E+00 -8.060786763636E+00 -8.080081847718E+00
 -8.097844426990E+00 -8.114108699898E+00 -8.128911807606E+00 -8.142293810838E+00
 -8.154297648255E+00 -8.164969074437E+00 -8.174356575550E+00 -8.182511260803E+00
 -8.189486727877E+00 -8.195338900567E+00 -8.200125837049E+00 -8.203907507332E+00
 -8.206745538667E+00 -8.208702927927E+00 -8.209843720272E+00 -8.210232653676E+00
 -8.209934769302E+00 -8.209014988025E+00 -8.207537653802E+00 -8.205566045018E+00
 -8.203161855322E+00 -8.200384645909E+00 -8.197291271619E+00 -8.193935283662E+00