<?xml version="1.0" encoding="UTF-8" ?>
<psml version="1.1" energy_unit="hartree" length_unit="bohr"
 uuid="329e47e0-53b5-11e8-7aa0-32f2ac9d6389"
 xmlns="http://esl.cecam.org/PSML/ns/1.1">
<provenance creator="ONCVPSP-3.3.0+psml-3.3.0-73 (fully-relativistic)"
 date="2018-05-09">
<annotation action="semilocal-pseudopotential-generation"
 action-cont="projectors-generation" />
<input-file name="oncvpsp-input">
<![CDATA[# atsym z nc nv iexc psfile
Pb 82 10 5 -116133 upf
# n l f
1 0 2.0
2 0 2.0
2 1 6.0
3 0 2.0
3 1 6.0
3 2 10.0
4 0 2.0
4 1 6.0
4 2 10.0
4 3 14.0
5 0 2.0
5 1 6.0
5 2 10.0
6 0 2.0
6 1 2.0
# lmax
2
# l rc ep ncon nbas qcut
0 1.4 0.0 4 8 9.0
1 1.5 0.0 4 8 8.4
2 1.4 0.0 4 8 9.0
# lloc lpopt rc5 dvloc0
4 5 1.3 0.0
# l nproj debl
0 2 1.8
1 2 2.5
2 2 1.0
# icmod fcfact rcfact
3 6.0 1.34
# epsh1 epsh2 depsh
-15.0 12.0 0.02
# rlmax drl
6.0 0.01
 0
]]>
</input-file>
</provenance>
<pseudo-atom-spec atomic-label="Pb" atomic-number="82" z-pseudo="22"
 flavor="Hamann&apos;s oncvpsp" relativity="dirac" spin-dft="no"
 core-corrections="yes">
<annotation pseudo-energy="-195.654126885" />
<exchange-correlation>
<annotation oncvpsp-xc-code="-116133" oncvpsp-xc-type="libxc-interface" />
<libxc-info number-of-functionals="2">
<functional name="Perdew, Burke &amp; Ernzerhof SOL (GGA)" type="exchange"
 id="116" />
<functional name="Perdew, Burke &amp; Ernzerhof SOL (GGA)" type="correlation"
 id="133" />
</libxc-info>
</exchange-correlation>
<valence-configuration total-valence-charge="22">
<shell n="5" l="s" occupation="2" />
<shell n="5" l="p" occupation="6" />
<shell n="5" l="d" occupation="10" />
<shell n="6" l="s" occupation="2" />
<shell n="6" l="p" occupation="2" />
</valence-configuration>
</pseudo-atom-spec>
<grid npts="457">
<annotation type="sampled from oncvpsp log grid"
 recipe="r(i:1..N) = r1*exp(a*(i-1)) + r=0; resampled"
 recipe-cont="r1: scale; a: step" scale="0.609756097561E-05"
 step="0.119285708653E-01" delta="0.500000000000E-02" rmax="44.0711828530" />
<grid-data>
  0.000000000000E+00  5.032510521928E-03  1.005204483031E-02  1.507967014897E-02
  2.031910874069E-02  2.548791981066E-02  3.084768604356E-02  3.602211884327E-02
  4.107285502462E-02  4.627644805099E-02  5.152104103689E-02  5.667985490806E-02
  6.235522201693E-02  6.778543968363E-02  7.281477174075E-02  7.821725444879E-02
  8.402057367273E-02  8.918425832686E-02  9.466528953126E-02  1.004831705747E-01
  1.066586033671E-01  1.118711087980E-01  1.173383542312E-01  1.230727890481E-01
  1.290874710433E-01  1.353960961578E-01  1.420130296658E-01  1.471870937611E-01
  1.525496683003E-01  1.581076214217E-01  1.638680714953E-01  1.698383962400E-01
  1.760262421726E-01  1.824395344007E-01  1.890864867735E-01  1.959756124011E-01
  2.031157345580E-01  2.105159979834E-01  2.155986962387E-01  2.208041111607E-01
  2.261352056205E-01  2.315950140250E-01  2.371866440437E-01  2.429132783775E-01
  2.487781765706E-01  2.547846768657E-01  2.609361981040E-01  2.672362416710E-01
  2.736883934899E-01  2.802963260623E-01  2.870638005588E-01  2.939946689595E-01
  3.010928762468E-01  3.083624626509E-01  3.158075659492E-01  3.234324238214E-01
  3.312413762622E-01  3.392388680507E-01  3.474294512809E-01  3.558177879526E-01
  3.644086526249E-01  3.732069351339E-01  3.822176433758E-01  3.914459061574E-01
  4.008969761157E-01  4.105762327070E-01  4.204891852695E-01  4.255350554928E-01
  4.306414761587E-01  4.358091738726E-01  4.410388839590E-01  4.463313505666E-01
  4.516873267734E-01  4.571075746946E-01  4.625928655910E-01  4.681439799781E-01
  4.737617077378E-01  4.794468482307E-01  4.852002104094E-01  4.910226129343E-01
  4.969148842895E-01  5.028778629010E-01  5.089123972558E-01  5.150193460229E-01
  5.211995781752E-01  5.274539731133E-01  5.337834207906E-01  5.401888218401E-01
  5.466710877022E-01  5.532311407546E-01  5.598699144437E-01  5.665883534170E-01
  5.733874136580E-01  5.802680626219E-01  5.872312793734E-01  5.942780547259E-01
  6.014093913826E-01  6.086263040792E-01  6.159298197281E-01  6.233209775648E-01
  6.308008292956E-01  6.383704392472E-01  6.460308845181E-01  6.537832551324E-01
  6.616286541939E-01  6.695681980443E-01  6.776030164208E-01  6.857342526179E-01
  6.939630636493E-01  7.022906204131E-01  7.107181078580E-01  7.192467251523E-01
  7.278776858541E-01  7.366122180844E-01  7.454515647014E-01  7.543969834778E-01
  7.634497472795E-01  7.726111442469E-01  7.818824779779E-01  7.912650677136E-01
  8.007602485262E-01  8.103693715085E-01  8.200938039666E-01  8.299349296142E-01
  8.398941487695E-01  8.499728785548E-01  8.601725530974E-01  8.704946237346E-01
  8.809405592194E-01  8.915118459301E-01  9.022099880812E-01  9.130365079382E-01
  9.239929460335E-01  9.350808613859E-01  9.463018317225E-01  9.576574537032E-01
  9.691493431476E-01  9.807791352654E-01  9.925484848885E-01  1.004459066707E+00
  1.016512575508E+00  1.028710726414E+00  1.041055255131E+00  1.053547918192E+00
  1.066190493211E+00  1.078984779129E+00  1.091932596479E+00  1.105035787636E+00
  1.118296217088E+00  1.131715771693E+00  1.145296360953E+00  1.159039917285E+00
  1.172948396292E+00  1.187023777048E+00  1.201268062372E+00  1.215683279121E+00
  1.230271478470E+00  1.245034736212E+00  1.259975153047E+00  1.275094854883E+00
  1.290395993142E+00  1.305880745059E+00  1.321551314000E+00  1.337409929768E+00
  1.353458848925E+00  1.369700355112E+00  1.386136759374E+00  1.402770400486E+00
  1.419603645292E+00  1.436638889036E+00  1.453878555704E+00  1.471325098372E+00
  1.488980999553E+00  1.506848771548E+00  1.524930956806E+00  1.543230128288E+00
  1.561748889827E+00  1.580489876505E+00  1.599455755023E+00  1.618649224084E+00
  1.638073014773E+00  1.657729890950E+00  1.677622649641E+00  1.697754121437E+00
  1.718127170894E+00  1.738744696945E+00  1.759609633308E+00  1.780724948908E+00
  1.802093648295E+00  1.823718772074E+00  1.845603397339E+00  1.867750638107E+00
  1.890163645765E+00  1.912845609514E+00  1.935799756828E+00  1.959029353910E+00
  1.982537706157E+00  2.006328158631E+00  2.030404096534E+00  2.054768945693E+00
  2.079426173041E+00  2.104379287117E+00  2.129631838563E+00  2.155187420626E+00
  2.181049669673E+00  2.207222265709E+00  2.233708932898E+00  2.260513440092E+00
  2.287639601374E+00  2.315091276590E+00  2.342872371909E+00  2.370986840372E+00
  2.399438682457E+00  2.428231946646E+00  2.457370730006E+00  2.486859178766E+00
  2.516701488911E+00  2.546901906778E+00  2.577464729659E+00  2.608394306415E+00
  2.639695038092E+00  2.671371378549E+00  2.703427835092E+00  2.735868969113E+00
  2.768699396742E+00  2.801923789503E+00  2.835546874977E+00  2.869573437477E+00
  2.904008318727E+00  2.938856418551E+00  2.974122695574E+00  3.009812167921E+00
  3.045929913936E+00  3.082481072903E+00  3.119470845778E+00  3.156904495927E+00
  3.194787349879E+00  3.233124798077E+00  3.271922295654E+00  3.311185363202E+00
  3.350919587560E+00  3.391130622611E+00  3.431824190082E+00  3.473006080363E+00
  3.514682153328E+00  3.556858339168E+00  3.599540639238E+00  3.642735126908E+00
  3.686447948431E+00  3.730685323813E+00  3.775453547698E+00  3.820758990271E+00
  3.866608098154E+00  3.913007395332E+00  3.959963484076E+00  4.007483045885E+00
  4.055572842435E+00  4.104239716545E+00  4.153490593143E+00  4.203332480261E+00
  4.253772470024E+00  4.304817739664E+00  4.356475552540E+00  4.408753259171E+00
  4.461658298281E+00  4.515198197860E+00  4.569380576234E+00  4.624213143149E+00
  4.679703700867E+00  4.735860145277E+00  4.792690467021E+00  4.850202752625E+00
  4.908405185656E+00  4.967306047884E+00  5.026913720459E+00  5.087236685104E+00
  5.148283525326E+00  5.210062927630E+00  5.272583682761E+00  5.335854686954E+00
  5.399884943198E+00  5.464683562516E+00  5.530259765266E+00  5.596622882449E+00
  5.663782357039E+00  5.731747745323E+00  5.800528718267E+00  5.870135062886E+00
  5.940576683641E+00  6.011863603845E+00  6.084005967091E+00  6.157014038696E+00
  6.230898207160E+00  6.305668985646E+00  6.381337013474E+00  6.457913057636E+00
  6.535408014327E+00  6.613832910499E+00  6.693198905425E+00  6.773517292290E+00
  6.854799499798E+00  6.937057093795E+00  7.020301778921E+00  7.104545400268E+00
  7.189799945071E+00  7.276077544412E+00  7.363390474945E+00  7.451751160644E+00
  7.541172174572E+00  7.631666240667E+00  7.723246235555E+00  7.815925190382E+00
  7.909716292666E+00  8.004632888178E+00  8.100688482836E+00  8.197896744630E+00
  8.296271505566E+00  8.395826763633E+00  8.496576684796E+00  8.598535605014E+00
  8.701718032274E+00  8.806138648661E+00  8.911812312445E+00  9.018754060195E+00
  9.126979108917E+00  9.236502858224E+00  9.347340892523E+00  9.459508983233E+00
  9.573023091032E+00  9.687899368124E+00  9.804154160542E+00  9.921804010468E+00
  1.004086565859E+01  1.016135604650E+01  1.028329231905E+01  1.040669182688E+01
  1.053157212881E+01  1.065795099435E+01  1.078584640628E+01  1.091527656316E+01
  1.104625988192E+01  1.117881500050E+01  1.131296078051E+01  1.144871630987E+01
  1.158610090559E+01  1.172513411646E+01  1.186583572586E+01  1.200822575457E+01
  1.215232446362E+01  1.229815235718E+01  1.244573018547E+01  1.259507894770E+01
  1.274621989507E+01  1.289917453381E+01  1.305396462821E+01  1.321061220375E+01
  1.336913955020E+01  1.352956922480E+01  1.369192405550E+01  1.385622714416E+01
  1.402250186989E+01  1.419077189233E+01  1.436106115504E+01  1.453339388890E+01
  1.470779461557E+01  1.488428815096E+01  1.506289960877E+01  1.524365440407E+01
  1.542657825692E+01  1.561169719600E+01  1.579903756236E+01  1.598862601310E+01
  1.618048952526E+01  1.637465539956E+01  1.657115126436E+01  1.677000507953E+01
  1.697124514049E+01  1.717490008217E+01  1.738099888316E+01  1.758957086976E+01
  1.780064572019E+01  1.801425346883E+01  1.823042451046E+01  1.844918960459E+01
  1.867057987984E+01  1.889462683840E+01  1.912136236046E+01  1.935081870879E+01
  1.958302853329E+01  1.981802487569E+01  2.005584117420E+01  2.029651126829E+01
  2.054006940351E+01  2.078655023635E+01  2.103598883919E+01  2.128842070526E+01
  2.154388175372E+01  2.180240833477E+01  2.206403723478E+01  2.232880568160E+01
  2.259675134978E+01  2.286791236598E+01  2.314232731437E+01  2.342003524214E+01
  2.370107566505E+01  2.398548857303E+01  2.427331443590E+01  2.456459420913E+01
  2.485936933964E+01  2.515768177172E+01  2.545957395298E+01  2.576508884042E+01
  2.607426990650E+01  2.638716114538E+01  2.670380707912E+01  2.702425276407E+01
  2.734854379724E+01  2.767672632281E+01  2.800884703868E+01  2.834495320315E+01
  2.868509264158E+01  2.902931375328E+01  2.937766551832E+01  2.973019750454E+01
  3.008695987460E+01  3.044800339309E+01  3.081337943381E+01  3.118313998701E+01
  3.155733766686E+01  3.193602571886E+01  3.231925802749E+01  3.270708912382E+01
  3.309957419330E+01  3.349676908362E+01  3.389873031263E+01  3.430551507638E+01
  3.471718125729E+01  3.513378743238E+01  3.555539288157E+01  3.598205759615E+01
  3.641384228730E+01  3.685080839475E+01  3.729301809549E+01  3.774053431263E+01
  3.819342072439E+01  3.865174177308E+01  3.911556267436E+01  3.958494942645E+01
  4.005996881956E+01  4.054068844540E+01  4.102717670674E+01  4.151950282723E+01
  4.201773686115E+01  4.252194970349E+01  4.303221309993E+01  4.354859965713E+01
  4.407118285301E+01
</grid-data>
</grid>
<valence-charge total-charge="22" is-unscreening-charge="yes"
 rescaled-to-z-pseudo="no">
<radfunc>
<data npts="457">
  3.906464993411E+00  3.909457393379E+00  3.918402942077E+00  3.933328101192E+00
  3.955230309936E+00  3.983179942169E+00  4.018806627076E+00  4.059609418152E+00
  4.105496816187E+00  4.159020692444E+00  4.219366399806E+00  4.284975896168E+00
  4.364292990708E+00  4.447159144060E+00  4.529967697989E+00  4.625384382302E+00
  4.735303180060E+00  4.839536177165E+00  4.956760335227E+00  5.088561388019E+00
  5.236708781661E+00  5.368313578918E+00  5.512747801801E+00  5.671218671843E+00
  5.845036731496E+00  6.035622115929E+00  6.244510489245E+00  6.414179936886E+00
  6.595818970951E+00  6.790212959485E+00  6.998188166848E+00  7.220611806799E+00
  7.458391587828E+00  7.712474627794E+00  7.983845592892E+00  8.273523890839E+00
  8.582559719728E+00  8.912028742039E+00  9.143566350241E+00  9.384998462722E+00
  9.636652593244E+00  9.898855136016E+00  1.017192947949E+01  1.045619384694E+01
  1.075195883606E+01  1.105952462819E+01  1.137917783596E+01  1.171118795711E+01
  1.205580340050E+01  1.241324705000E+01  1.278371133124E+01  1.316735274642E+01
  1.356428584343E+01  1.397457658716E+01  1.439823510383E+01  1.483520777368E+01
  1.528536865270E+01  1.574851021231E+01  1.622433339550E+01  1.671243700036E+01
  1.721230641747E+01  1.772330176585E+01  1.824464549451E+01  1.877540954291E+01
  1.931450218368E+01  1.986065470653E+01  2.041240814160E+01  2.068987404094E+01
  2.096810026549E+01  2.124684524043E+01  2.152585318257E+01  2.180485376866E+01
  2.208356182770E+01  2.236167706106E+01  2.263888379439E+01  2.291485076549E+01
  2.318923095266E+01  2.346166144826E+01  2.373176338233E+01  2.399914190153E+01
  2.426338620869E+01  2.452406966852E+01  2.478074998516E+01  2.503296945754E+01
  2.528025531826E+01  2.552212016225E+01  2.575806247096E+01  2.598756723840E+01
  2.621010670453E+01  2.642514120212E+01  2.663212012230E+01  2.683048300422E+01
  2.701966075345E+01  2.719907699359E+01  2.736814955470E+01  2.752629210163E+01
  2.767291590447E+01  2.780743175233E+01  2.792925201075E+01  2.803779282160E+01
  2.813247644339E+01  2.821273372794E+01  2.827800672839E+01  2.832775143115E+01
  2.836144060329E+01  2.837856674420E+01  2.837864512902E+01  2.836121692870E+01
  2.832585238978E+01  2.827215405456E+01  2.819976000035E+01  2.810834707417E+01
  2.799763409743E+01  2.786738501300E+01  2.771741194536E+01  2.754757814306E+01
  2.735780077130E+01  2.714805352145E+01  2.691836900389E+01  2.666884089011E+01
  2.639962577053E+01  2.611094469504E+01  2.580308436478E+01  2.547639794554E+01
  2.513130547556E+01  2.476829384373E+01  2.438791631777E+01  2.399079160650E+01
  2.357760244455E+01  2.314909369386E+01  2.270606996127E+01  2.224939273798E+01
  2.177997707242E+01  2.129878779453E+01  2.080683531547E+01  2.030517103254E+01
  1.979488237475E+01  1.927708752946E+01  1.875292989457E+01  1.822357230446E+01
  1.769019108032E+01  1.715396995703E+01  1.661609393938E+01  1.607774313979E+01
  1.554008664821E+01  1.500427648241E+01  1.447144166357E+01  1.394268245834E+01
  1.341906482428E+01  1.290161509093E+01  1.239131490499E+01  1.188909646363E+01
  1.139583805710E+01  1.091235993914E+01  1.043942054231E+01  9.977713055051E+00
  9.527862378095E+00  9.090422479542E+00  8.665874170681E+00  8.254623327731E+00
  7.856999588129E+00  7.473255553063E+00  7.103566530436E+00  6.748030854106E+00
  6.406670816512E+00  6.079434250171E+00  5.766196786718E+00  5.466764813703E+00
  5.180880765999E+00  4.908235630101E+00  4.648485272903E+00  4.401256564031E+00
  4.166150182273E+00  3.942745799825E+00  3.730607185030E+00  3.529290379971E+00
  3.338353043390E+00  3.157356448877E+00  2.985867357145E+00  2.823459584044E+00
  2.669715385994E+00  2.524226641783E+00  2.386595850287E+00  2.256436956122E+00
  2.133376016138E+00  2.017051719502E+00  1.907115773950E+00  1.803233170408E+00
  1.705082337867E+00  1.612355199892E+00  1.524757143662E+00  1.442006911876E+00
  1.363836427294E+00  1.289990559069E+00  1.220226839416E+00  1.154315138543E+00
  1.092037305165E+00  1.033186779289E+00  9.775681833975E-01  9.249968975442E-01
  8.752986233570E-01  8.283089413806E-01  7.838728657091E-01  7.418443993712E-01
  7.020860934888E-01  6.644686128118E-01  6.288703098440E-01  5.951768094226E-01
  5.632806052823E-01  5.330806698440E-01  5.044820781913E-01  4.773956469636E-01
  4.517375886713E-01  4.274291817527E-01  4.043964565193E-01  3.825698969899E-01
  3.618841584895E-01  3.422778007759E-01  3.236930363692E-01  3.060754936814E-01
  2.893739944832E-01  2.735403451943E-01  2.585291414471E-01  2.442975853473E-01
  2.308053148337E-01  2.180142445331E-01  2.058884174993E-01  1.943938672367E-01
  1.834984893701E-01  1.731719224508E-01  1.633854372475E-01  1.541118340055E-01
  1.453253471321E-01  1.370015567951E-01  1.291173069454E-01  1.216506292965E-01
  1.145806728217E-01  1.078876383505E-01  1.015527178747E-01  9.555803819451E-02
  8.988660856301E-02  8.452227200725E-02  7.944966002882E-02  7.465415040725E-02
  7.012182785096E-02  6.583944725963E-02  6.179439938106E-02  5.797467866309E-02
  5.436885311797E-02  5.096603603154E-02  4.775585936646E-02  4.472844871919E-02
  4.187439970591E-02  3.918475566325E-02  3.665098656094E-02  3.426496903371E-02
  3.201896744908E-02  2.990561593624E-02  2.791790130938E-02  2.604914682549E-02
  2.429299672367E-02  2.264340149722E-02  2.109460386319E-02  1.964112537801E-02
  1.827775367950E-02  1.699953031833E-02  1.580173915298E-02  1.467989528342E-02
  1.362973450039E-02  1.264720322891E-02  1.172844894522E-02  1.086981104750E-02
  1.006781216094E-02  9.319149857651E-03  8.620688772560E-03  7.969453095725E-03
  7.362619421951E-03  6.797509938325E-03  6.271585930424E-03  5.782441588205E-03
  5.327798092879E-03  4.905497966673E-03  4.513499668034E-03  4.149872415741E-03
  3.812791226373E-03  3.500532150706E-03  3.211467695855E-03  2.944062421192E-03
  2.696868697396E-03  2.468522619239E-03  2.257740063935E-03  2.063312888053E-03
  1.884105257044E-03  1.719050102411E-03  1.567145702403E-03  1.427452382842E-03
  1.299089335304E-03  1.181231550392E-03  1.073106864180E-03  9.739931162402E-04
  8.832154178015E-04  8.001435287202E-04  7.241893419476E-04  6.548044741535E-04
  5.914779610669E-04  5.337340559675E-04  4.811301295948E-04  4.332546695576E-04
  3.897253771292E-04  3.501873591076E-04  3.143114122241E-04  2.817923973884E-04
  2.523477008892E-04  2.257157795111E-04  2.016547864054E-04  1.799412744477E-04
  1.603689737507E-04  1.427476399613E-04  1.269019699645E-04  1.126705816432E-04
  9.990505439425E-05  8.846902718175E-05  7.823735100640E-05  6.909529279160E-05
  6.093778781764E-05  5.366873797877E-05  4.720035328613E-05  4.145253418941E-05
  3.635229243903E-05  3.183320835468E-05  2.783492250400E-05  2.430265992392E-05
  2.118678513725E-05  1.844238632595E-05  1.602888712169E-05  1.390968456260E-05
  1.205181184387E-05  1.042562455972E-05  9.004509195639E-06  7.764612684634E-06
  6.684591889424E-06  5.745381916458E-06  4.929982207056E-06  4.223259387728E-06
  3.611765896196E-06  3.083573432655E-06  2.628120317943E-06  2.236071872070E-06
  1.899192958248E-06  1.610231869528E-06  1.362814767462E-06  1.151349914975E-06
  9.709409788735E-07  8.173087110482E-07  6.867203513567E-07  5.759261292979E-07
  4.821022756960E-07  4.027999895921E-07  3.358998391806E-07  2.795711087693E-07
  2.322356362173E-07  1.925357169627E-07  1.593056814493E-07  1.315467823804E-07
  1.084050566626E-07  8.915185406969E-08  7.316675049334E-08  5.992258810132E-08
  4.897240777046E-08  3.993806081202E-08  3.250030712719E-08  2.639022598641E-08
  2.138178254901E-08  1.728541008360E-08  1.394248192231E-08  1.122056120859E-08
  9.009328724416E-09  7.217100381403E-09  5.767856180353E-09  4.598711678494E-09
  3.657771318839E-09  2.902310438776E-09  2.297239450308E-09  1.813809635882E-09
  1.428525292876E-09  1.122231645161E-09  8.793520775582E-10  6.872518909293E-10
  5.357089714433E-10  4.164745630919E-10  3.229097703521E-10  2.496855371622E-10
  1.925356850401E-10  1.480541799776E-10  1.135291644532E-10  8.680746440155E-11
  6.618428545711E-11  5.031366992265E-11  3.813601504439E-11  2.881957147488E-11
  2.171336348178E-11  1.630941290724E-11  1.221251886228E-11  9.116154936811E-12
  6.783304276614E-12  5.031267998783E-12  3.719660805622E-12  2.740955102128E-12
  2.013056388961E-12  1.473492435549E-12  1.074880350758E-12  7.814022274737E-13
  5.660741337429E-13  4.086370388137E-13  2.939336276153E-13  2.106634014115E-13
  1.504312587317E-13  1.070229550987E-13  7.585532480683E-14  5.356063085684E-14
  3.767347858225E-14  2.639586476239E-14  1.842152831456E-14  1.280513678194E-14
  8.865240954630E-15  6.112562719585E-15  4.197213122279E-15  2.869999449041E-15
  1.954175793118E-15  1.324903148562E-15  8.943771961229E-16  6.011052357128E-16
  4.022076851052E-16  2.679148926945E-16  1.776504375859E-16  1.172558874255E-16
  7.703316011236E-17  5.036987705014E-17  3.277851955802E-17  2.122794216018E-17
  1.367435132218E-17  8.769312658518E-18  5.595590923193E-18  3.552398051807E-18
  2.243705725924E-18  1.409781355515E-18  8.811540184891E-19  5.478204834265E-19
  3.387527084747E-19  2.083322252593E-19  1.274176594925E-19  7.749463446602E-20
  4.686516241215E-20  0.000000000000E+00  0.000000000000E+00  0.000000000000E+00
  0.000000000000E+00
</data>
</radfunc>
</valence-charge>
<pseudocore-charge matching-radius="0.719246725152"
 number-of-continuous-derivatives="4">
<annotation model-charge-form="Teter function with specified parameters" />
<radfunc>
<data npts="290">
  1.752934662663E+02  1.752783666193E+02  1.752332305779E+02  1.751579344242E+02
  1.750474642300E+02  1.749065344426E+02  1.747269634473E+02  1.745213971392E+02
  1.742903337646E+02  1.740209761572E+02  1.737174916203E+02  1.733877782311E+02
  1.729895143372E+02  1.725738186656E+02  1.721588046273E+02  1.716810835210E+02
  1.711313862280E+02  1.706107394771E+02  1.700259080478E+02  1.693692322203E+02
  1.686322061029E+02  1.679784309379E+02  1.672619347130E+02  1.664770011990E+02
  1.656174563361E+02  1.646766451555E+02  1.636474107508E+02  1.628128590773E+02
  1.619208268657E+02  1.609677077815E+02  1.599497234760E+02  1.588629241934E+02
  1.577031911772E+02  1.564662412091E+02  1.551476336569E+02  1.537427804528E+02
  1.522469594649E+02  1.506553317777E+02  1.495385873274E+02  1.483755906472E+02
  1.471648522767E+02  1.459048780042E+02  1.445941741356E+02  1.432312533880E+02
  1.418146414529E+02  1.403428842706E+02  1.388145560615E+02  1.372282681546E+02
  1.355826786559E+02  1.338765029962E+02  1.321085253921E+02  1.302776112553E+02
  1.283827205725E+02  1.264229222792E+02  1.243974096348E+02  1.223055166019E+02
  1.201467352166E+02  1.179207339234E+02  1.156273768329E+02  1.132667438371E+02
  1.108391514987E+02  1.083451746031E+02  1.057856682342E+02  1.031617902039E+02
  1.004750236292E+02  9.772719941480E+01  9.492051835544E+01  9.349590068510E+01
  9.205757253280E+01  9.060592238168E+01  8.914136563135E+01  8.766434514354E+01
  8.617533175329E+01  8.467482474121E+01  8.316335226285E+01  8.164147173039E+01
  8.010977014208E+01  7.856886435464E+01  7.701940129347E+01  7.546205809568E+01
  7.389754218053E+01  7.232659124208E+01  7.074997315832E+01  6.916848581147E+01
  6.758295681375E+01  6.599424313302E+01  6.440323061271E+01  6.281083338056E+01
  6.121799314069E+01  5.962567834359E+01  5.803488322914E+01  5.644662673754E+01
  5.486195128362E+01  5.328192139025E+01  5.170762217701E+01  5.014015770058E+01
  4.858064914419E+01  4.703023285358E+01  4.549005821812E+01  4.396128539609E+01
  4.244508288414E+01  4.094262493185E+01  3.945508880328E+01  3.798365188835E+01
  3.652948866835E+01  3.509376754076E+01  3.367764750999E+01  3.228227475227E+01
  3.090877906388E+01  2.955827020380E+01  2.823183414339E+01  2.693052923694E+01
  2.565538232915E+01  2.440738481667E+01  2.318748868288E+01  2.199660252654E+01
  2.083558760663E+01  1.970525392720E+01  1.860635638764E+01  1.753959102502E+01
  1.650559137653E+01  1.550492499124E+01  1.453809012111E+01  1.360551262213E+01
  1.270754309695E+01  1.184445431050E+01  1.101643891002E+01  1.022360748078E+01
  9.465986967659E+00  8.743519491924E+00  8.056061590863E+00  7.403383906000E+00
  6.785171343207E+00  6.201023725156E+00  5.650456953231E+00  5.132904692171E+00
  4.647720586512E+00  4.194181013132E+00  3.771488369097E+00  3.378774888496E+00
  3.015106976071E+00  2.679490039314E+00  2.370873794357E+00  2.088158014428E+00
  1.830198683140E+00  1.595814508333E+00  1.383793745850E+00  1.192901276560E+00
  1.021885874251E+00  8.694875969016E-01  7.344452293647E-01  6.155037018342E-01
  5.114214057573E-01  4.209773271955E-01  3.429779171698E-01  2.762636193405E-01
  2.197149775576E-01  1.722582494384E-01  1.328704572077E-01  1.005838135962E-01
  7.448946858307E-02  5.374053213403E-02  3.755433871349E-02  2.521393108518E-02
  1.606875357221E-02  9.534558287628E-03  5.092541600410E-03  2.287741963040E-03
  7.267438610649E-04  7.474569819101E-05  5.206153639127E-05  4.301374033082E-04
  1.027172004953E-03  1.703438811766E-03  2.356411331377E-03  2.915795706219E-03
  3.338574409952E-03  3.604161674449E-03  3.709765359958E-03  3.666041384004E-03
  3.493115751281E-03  3.217035981493E-03  2.866698718068E-03  2.471284010429E-03
  2.058209763507E-03  1.651602763355E-03  1.271266170840E-03  9.321080829125E-04
  6.439823205931E-04  4.118815809474E-04  2.364149591771E-04  1.144969547056E-04
  4.017361958568E-05  5.513516957465E-06  1.496479174753E-06  1.884145568200E-05
  4.872551481999E-05  8.335865790763E-05  1.163927499102E-04  1.431567300621E-04
  1.607234812930E-04  1.678254920738E-04  1.646460193381E-04  1.525192907224E-04
  1.335770029569E-04  1.103788493615E-04  8.556216255038E-05  6.154035573427E-05
  4.027227729191E-05  2.311562495508E-05  1.076807616519E-05  3.290690989170E-06
  2.002915116976E-07  6.116370195283E-07  3.406805073361E-06  7.408493875617E-06
  1.153592302204E-05  1.492627541789E-05  1.701058353354E-05  1.753982130556E-05
  1.656382929580E-05  1.437170349221E-05  1.140667590464E-05  8.170795916031E-06
  5.134674210328E-06  2.665297609134E-06  9.809019938686E-07  1.367941039665E-07
  0.000000000000E+00  0.000000000000E+00  0.000000000000E+00  0.000000000000E+00
  0.000000000000E+00  0.000000000000E+00  0.000000000000E+00  0.000000000000E+00
  0.000000000000E+00  0.000000000000E+00  0.000000000000E+00  0.000000000000E+00
  0.000000000000E+00  0.000000000000E+00  0.000000000000E+00  0.000000000000E+00
  0.000000000000E+00  0.000000000000E+00  0.000000000000E+00  0.000000000000E+00
  0.000000000000E+00  0.000000000000E+00  0.000000000000E+00  0.000000000000E+00
  0.000000000000E+00  0.000000000000E+00  0.000000000000E+00  0.000000000000E+00
  0.000000000000E+00  0.000000000000E+00  0.000000000000E+00  0.000000000000E+00
  0.000000000000E+00  0.000000000000E+00  0.000000000000E+00  0.000000000000E+00
  0.000000000000E+00  0.000000000000E+00  0.000000000000E+00  0.000000000000E+00
  0.000000000000E+00  0.000000000000E+00  0.000000000000E+00  0.000000000000E+00
  0.000000000000E+00  0.000000000000E+00  0.000000000000E+00  0.000000000000E+00
  0.000000000000E+00  0.000000000000E+00  0.000000000000E+00  0.000000000000E+00
  0.000000000000E+00  0.000000000000E+00  0.000000000000E+00  0.000000000000E+00
  0.000000000000E+00  0.000000000000E+00  0.000000000000E+00  0.000000000000E+00
  0.000000000000E+00  0.000000000000E+00
</data>
</radfunc>
</pseudocore-charge>
<semilocal-potentials set="lj">
<slps n="5" l="s" j="0.5" rc="1.40277040049" eref="-5.28100337726">
<radfunc>
<data npts="290">
 -1.464491619052E+01 -1.464754616597E+01 -1.465540483558E+01 -1.466850515727E+01
 -1.468770362333E+01 -1.471215844162E+01 -1.474325821559E+01 -1.477877744873E+01
 -1.481859727695E+01 -1.486487674854E+01 -1.491684029497E+01 -1.497308040728E+01
 -1.504071724362E+01 -1.511097102205E+01 -1.518076191182E+01 -1.526067081487E+01
 -1.535205791989E+01 -1.543806600097E+01 -1.553404520606E+01 -1.564102564128E+01
 -1.576011160233E+01 -1.586488387148E+01 -1.597878659362E+01 -1.610247540650E+01
 -1.623662546080E+01 -1.638192604133E+01 -1.653907374581E+01 -1.666512788621E+01
 -1.679852720433E+01 -1.693955505755E+01 -1.708848521958E+01 -1.724557829812E+01
 -1.741107775834E+01 -1.758520554712E+01 -1.776815731934E+01 -1.796009727555E+01
 -1.816115262949E+01 -1.837140773392E+01 -1.851670842625E+01 -1.866611177239E+01
 -1.881960299014E+01 -1.897715459429E+01 -1.913872550740E+01 -1.930426016782E+01
 -1.947368764028E+01 -1.964692073504E+01 -1.982385514144E+01 -2.000436858204E+01
 -2.018831999385E+01 -2.037554874278E+01 -2.056587387766E+01 -2.075909342986E+01
 -2.095498376433E+01 -2.115329898733E+01 -2.135377041578E+01 -2.155610611243E+01
 -2.175999049040E+01 -2.196508398985E+01 -2.217102282868E+01 -2.237741882840E+01
 -2.258385931526E+01 -2.278990709613E+01 -2.299510050761E+01 -2.319895353639E+01
 -2.340095600822E+01 -2.360057384256E+01 -2.379724936984E+01 -2.389430313807E+01
 -2.399040170853E+01 -2.408546891540E+01 -2.417942719951E+01 -2.427219762485E+01
 -2.436369989609E+01 -2.445385237691E+01 -2.454257210922E+01 -2.462977483329E+01
 -2.471537500887E+01 -2.479928583726E+01 -2.488141928447E+01 -2.496168610547E+01
 -2.503999586963E+01 -2.511625698750E+01 -2.519037673889E+01 -2.526226130251E+01
 -2.533181578725E+01 -2.539894426518E+01 -2.546354980653E+01 -2.552553451676E+01
 -2.558479957588E+01 -2.564124528034E+01 -2.569477108754E+01 -2.574527566330E+01
 -2.579265693251E+01 -2.583681213318E+01 -2.587763787424E+01 -2.591503019721E+01
 -2.594888464221E+01 -2.597909631848E+01 -2.600555997980E+01 -2.602817010504E+01
 -2.604682098423E+01 -2.606140681045E+01 -2.607182177788E+01 -2.607796018628E+01
 -2.607971655240E+01 -2.607698572843E+01 -2.606966302800E+01 -2.605764436000E+01
 -2.604082637061E+01 -2.601910659378E+01 -2.599238361063E+01 -2.596055721811E+01
 -2.592352860713E+01 -2.588120055084E+01 -2.583347760317E+01 -2.578026630829E+01
 -2.572147542137E+01 -2.565701614117E+01 -2.558680235518E+01 -2.551075089785E+01
 -2.542878182281E+01 -2.534081869003E+01 -2.524678886885E+01 -2.514662385835E+01
 -2.504025962633E+01 -2.492763696884E+01 -2.480870189212E+01 -2.468340601946E+01
 -2.455170702568E+01 -2.441356910264E+01 -2.426896345946E+01 -2.411786886208E+01
 -2.396027221722E+01 -2.379616920709E+01 -2.362556498179E+01 -2.344847491786E+01
 -2.326492545276E+01 -2.307495500660E+01 -2.287861500461E+01 -2.267597101590E+01
 -2.246710402678E+01 -2.225211187003E+01 -2.203111083516E+01 -2.180423748856E+01
 -2.157165073747E+01 -2.133353417686E+01 -2.109009876426E+01 -2.084158587401E+01