As    ONCVPSP-3.3.0  r_core=   1.85233   1.80867   2.40819
33.0000      5.0000      180430    zatom,zion,pspd
8 -116133   2     4   600     0    pspcod,pspxc,lmax,lloc,mmax,r2well
5.99000000  8.00000000  0.00000000    rchrg fchrg qchrg
2     3     3     0    nproj
3     1           extension_switch
4     4     0    nprojso
0                         8.9129659708007D-01  8.5095423574164D+00
1  0.0000000000000D+00  1.7815976471880D-10 -1.6639811750707D-10
2  1.0000000000000D-02 -2.0970328396383D-02  3.8460001231911D-02
3  2.0000000000000D-02 -4.1895656504633D-02  7.6880472080649D-02
4  3.0000000000000D-02 -6.2731202838180D-02  1.1522209927138D-01
5  4.0000000000000D-02 -8.3432620307816D-02  1.5344600062117D-01
6  5.0000000000000D-02 -1.0395620545195D-01  1.9151393281597D-01
7  6.0000000000000D-02 -1.2425909823302D-01  2.2938848998457D-01
8  7.0000000000000D-02 -1.4429946946721D-01  2.6703329019969D-01
9  8.0000000000000D-02 -1.6403669313301D-01  3.0441314720292D-01
10  9.0000000000000D-02 -1.8343150102221D-01  3.4149422485389D-01
11  1.0000000000000D-01 -2.0244611745255D-01  3.7824417204342D-01
12  1.1000000000000D-01 -2.2104437205112D-01  4.1463223608072D-01
13  1.2000000000000D-01 -2.3919178893721D-01  4.5062935286444D-01
14  1.3000000000000D-01 -2.5685565097970D-01  4.8620821247116D-01
15  1.4000000000000D-01 -2.7400503817124D-01  5.2134329913912D-01
16  1.5000000000000D-01 -2.9061083954641D-01  5.5601090498551D-01
17  1.6000000000000D-01 -3.0664573846653D-01  5.9018911716747D-01
18  1.7000000000000D-01 -3.2208417149690D-01  6.2385777857491D-01
19  1.8000000000000D-01 -3.3690226150570D-01  6.5699842252356D-01
20  1.9000000000000D-01 -3.5107772601331D-01  6.8959418229286D-01
21  2.0000000000000D-01 -3.6458976221075D-01  7.2162967672199D-01
22  2.1000000000000D-01 -3.7741891044094D-01  7.5309087343214D-01
23  2.2000000000000D-01 -3.8954689829147D-01  7.8396493158085D-01
24  2.3000000000000D-01 -4.0095646777753D-01  8.1424002636902D-01
25  2.4000000000000D-01 -4.1163118839443D-01  8.4390515780951D-01
26  2.5000000000000D-01 -4.2155525908554D-01  8.7294994652450D-01
27  2.6000000000000D-01 -4.3071330240068D-01  9.0136441956202D-01
28  2.7000000000000D-01 -4.3909015430740D-01  9.2913878940865D-01
29  2.8000000000000D-01 -4.4667065326167D-01  9.5626322952192D-01
30  2.9000000000000D-01 -4.5343943224096D-01  9.8272764980978D-01
31  3.0000000000000D-01 -4.5938071749145D-01  1.0085214755447D+00
32  3.1000000000000D-01 -4.6447813774001D-01  1.0336334332146D+00
33  3.2000000000000D-01 -4.6871454756947D-01  1.0580513467830D+00
34  3.3000000000000D-01 -4.7207186855395D-01  1.0817619477513D+00
35  3.4000000000000D-01 -4.7453095159872D-01  1.1047507022977D+00
36  3.5000000000000D-01 -4.7607146372818D-01  1.1270016585975D+00
37  3.6000000000000D-01 -4.7667180231823D-01  1.1484973172218D+00
38  3.7000000000000D-01 -4.7630903947662D-01  1.1692185272622D+00
39  3.8000000000000D-01 -4.7495889894202D-01  1.1891444105408D+00
40  3.9000000000000D-01 -4.7259576750012D-01  1.2082523159443D+00
41  4.0000000000000D-01 -4.6919274251075D-01  1.2265178055664D+00
42  4.1000000000000D-01 -4.6472171670428D-01  1.2439146739641D+00
43  4.2000000000000D-01 -4.5915350094731D-01  1.2604150014319D+00
44  4.3000000000000D-01 -4.5245798519892D-01  1.2759892417759D+00
45  4.4000000000000D-01 -4.4460433738688D-01  1.2906063446405D+00
46  4.5000000000000D-01 -4.3556123943439D-01  1.3042339119977D+00
47  4.6000000000000D-01 -4.2529715916553D-01  1.3168383879683D+00
48  4.7000000000000D-01 -4.1378065632187D-01  1.3283852807054D+00
49  4.8000000000000D-01 -4.0098072043532D-01  1.3388394146419D+00
50  4.9000000000000D-01 -3.8686713783240D-01  1.3481652109845D+00
51  5.0000000000000D-01 -3.7141088459795D-01  1.3563269939450D+00
52  5.1000000000000D-01 -3.5458454190613D-01  1.3632893198229D+00
53  5.2000000000000D-01 -3.3636272974108D-01  1.3690173257158D+00
54  5.3000000000000D-01 -3.1672255468220D-01  1.3734770943189D+00
55  5.4000000000000D-01 -2.9564406712544D-01  1.3766360310117D+00
56  5.5000000000000D-01 -2.7311072305599D-01  1.3784632491920D+00
57  5.6000000000000D-01 -2.4910984528308D-01  1.3789299596409D+00
58  5.7000000000000D-01 -2.2363307889836D-01  1.3780098595600D+00
59  5.8000000000000D-01 -1.9667683562650D-01  1.3756795168374D+00
60  5.9000000000000D-01 -1.6824272170368D-01  1.3719187450640D+00
61  6.0000000000000D-01 -1.3833794394740D-01  1.3667109648361D+00
62  6.1000000000000D-01 -1.0697568876923D-01  1.3600435469534D+00
63  6.2000000000000D-01 -7.4175469032211D-02  1.3519081332401D+00
64  6.3000000000000D-01 -3.9963433864666D-02  1.3423009308934D+00
65  6.4000000000000D-01 -4.3726368104383D-03  1.3312229764866D+00
66  6.5000000000000D-01  3.2556741978908D-02  1.3186803660267D+00
67  6.6000000000000D-01  7.0777223425076D-02  1.3046844477837D+00
68  6.7000000000000D-01  1.1023391056500D-01  1.2892519749677D+00
69  6.8000000000000D-01  1.5086442596557D-01  1.2724052157289D+00
70  6.9000000000000D-01  1.9259890800766D-01  1.2541720183874D+00
71  7.0000000000000D-01  2.3536006798365D-01  1.2345858302596D+00
72  7.1000000000000D-01  2.7906330937332D-01  1.2136856689332D+00
73  7.2000000000000D-01  3.2361691005381D-01  1.1915160453478D+00
74  7.3000000000000D-01  3.6892226757868D-01  1.1681268385540D+00
75  7.4000000000000D-01  4.1487420702625D-01  1.1435731225459D+00
76  7.5000000000000D-01  4.6136135027888D-01  1.1179149460898D+00
77  7.6000000000000D-01  5.0826654496182D-01  1.0912170669868D+00
78  7.7000000000000D-01  5.5546735064412D-01  1.0635486427192D+00
79  7.8000000000000D-01  6.0283657929690D-01  1.0349828799174D+00
80  7.9000000000000D-01  6.5024288642197D-01  1.0055966455550D+00
81  8.0000000000000D-01  6.9755140870992D-01  9.7547004321530D-01
82  8.1000000000000D-01  7.4462444357212D-01  9.4468595817833D-01
83  8.2000000000000D-01  7.9132216541770D-01  9.1332957544371D-01
84  8.3000000000000D-01  8.3750337312295D-01  8.8148787512463D-01
85  8.4000000000000D-01  8.8302626276950D-01  8.4924910992377D-01
86  8.5000000000000D-01  9.2774921941534D-01  8.1670226962448D-01
87  8.6000000000000D-01  9.7153162141174D-01  7.8393653769952D-01
88  8.7000000000000D-01  1.0142346505930D+00  7.5104074525221D-01
89  8.8000000000000D-01  1.0557221015479D+00  7.1810282755946D-01
90  8.9000000000000D-01  1.0958611831311D+00  6.8520928848145D-01
91  9.0000000000000D-01  1.1345233053949D+00  6.5244467793943D-01
92  9.1000000000000D-01  1.1715848452105D+00  6.1989108754008D-01
93  9.2000000000000D-01  1.2069278840083D+00  5.8762766924482D-01
94  9.3000000000000D-01  1.2404409112964D+00  5.5573018174640D-01
95  9.4000000000000D-01  1.2720194879063D+00  5.2427056892509D-01
96  9.5000000000000D-01  1.3015668632758D+00  4.9331657441745D-01
97  9.6000000000000D-01  1.3289945414896D+00  4.6293139594478D-01
98  9.7000000000000D-01  1.3542227912769D+00  4.3317338261414D-01
99  9.8000000000000D-01  1.3771810956708D+00  4.0409577795175D-01
100  9.9000000000000D-01  1.3978085376124D+00  3.7574651091635D-01
101  1.0000000000000D+00  1.4160541183787D+00  3.4816803662311D-01
102  1.0100000000000D+00  1.4318770063458D+00  3.2139722796298D-01
103  1.0200000000000D+00  1.4452467142603D+00  2.9546531874362D-01
104  1.0300000000000D+00  1.4561432038610D+00  2.7039789841266D-01
105  1.0400000000000D+00  1.4645569174045D+00  2.4621495784339D-01
106  1.0500000000000D+00  1.4704887362742D+00  2.2293098514352D-01
107  1.0600000000000D+00  1.4739498676185D+00  2.0055510984052D-01
108  1.0700000000000D+00  1.4749616605713D+00  1.7909129331088D-01
109  1.0800000000000D+00  1.4735553542834D+00  1.5853856280223D-01
110  1.0900000000000D+00  1.4697717606412D+00  1.3889128590471D-01
111  1.1000000000000D+00  1.4636608850522D+00  1.2013948195376D-01
112  1.1100000000000D+00  1.4552814893503D+00  1.0226916636505D-01
113  1.1200000000000D+00  1.4447006012841D+00  8.5262723621309D-02
114  1.1300000000000D+00  1.4319929755585D+00  6.9099304299995D-02
115  1.1400000000000D+00  1.4172405117381D+00  5.3755241323753D-02
116  1.1500000000000D+00  1.4005316347228D+00  3.9204480387557D-02
117  1.1600000000000D+00  1.3819606437472D+00  2.5419019416555D-02
118  1.1700000000000D+00  1.3616270360589D+00  1.2369351859165D-02
119  1.1800000000000D+00  1.3396348115600D+00  2.4908589360973D-05
120  1.1900000000000D+00  1.3160917648087D+00 -1.1645506737564D-02
121  1.2000000000000D+00  1.2911087707289D+00 -2.2673293888178D-02
122  1.2100000000000D+00  1.2647990703050D+00 -3.3089648639677D-02
123  1.2200000000000D+00  1.2372775624770D+00 -4.2925176426221D-02
124  1.2300000000000D+00  1.2086601081665D+00 -5.2209531301881D-02
125  1.2400000000000D+00  1.1790628520339D+00 -6.0971084093593D-02
126  1.2500000000000D+00  1.1486015675344D+00 -6.9236623531881D-02
127  1.2600000000000D+00  1.1173910301210D+00 -7.7031093318330D-02
128  1.2700000000000D+00  1.0855444230587D+00 -8.4377367699850D-02
129  1.2800000000000D+00  1.0531727802353D+00 -9.1296068007270D-02
130  1.2900000000000D+00  1.0203844693388D+00 -9.7805421547517D-02
131  1.3000000000000D+00  9.8728471827980D-01 -1.0392116378616D-01
132  1.3100000000000D+00  9.5397518781278D-01 -1.0965648479425D-01
133  1.3200000000000D+00  9.2055359182117D-01 -1.1502201948727D-01
134  1.3300000000000D+00  8.8711336651815D-01 -1.2002588102744D-01
135  1.3400000000000D+00  8.5374338978664D-01 -1.2467373668491D-01
136  1.3500000000000D+00  8.2052775010228D-01 -1.2896892385086D-01
137  1.3600000000000D+00  7.8754556489086D-01 -1.3291260429524D-01
138  1.3700000000000D+00  7.5487084746020D-01 -1.3650395407890D-01
139  1.3800000000000D+00  7.2257242031070D-01 -1.3974038546841D-01
140  1.3900000000000D+00  6.9071387345182D-01 -1.4261779785794D-01
141  1.4000000000000D+00  6.5935356467332D-01 -1.4513085333299D-01
142  1.4100000000000D+00  6.2854465878974D-01 -1.4727327269533D-01
143  1.4200000000000D+00  5.9833520291720D-01 -1.4903814764255D-01
144  1.4300000000000D+00  5.6876823342553D-01 -1.5041826400889D-01
145  1.4400000000000D+00  5.3988191120157D-01 -1.5140643154370D-01
146  1.4500000000000D+00  5.1170968059757D-01 -1.5199581496818D-01
147  1.4600000000000D+00  4.8428044796279D-01 -1.5218026164527D-01
148  1.4700000000000D+00  4.5761877516718D-01 -1.5195462050031D-01
149  1.4800000000000D+00  4.3174508381335D-01 -1.5131504798494D-01
150  1.4900000000000D+00  4.0667586545446D-01 -1.5025929566048D-01
151  1.5000000000000D+00  3.8242389371845D-01 -1.4878697570171D-01
152  1.5100000000000D+00  3.5899843401470D-01 -1.4689979973452D-01
153  1.5200000000000D+00  3.3640544665067D-01 -1.4460178713303D-01
154  1.5300000000000D+00  3.1464778026906D-01 -1.4189944012373D-01
155  1.5400000000000D+00  2.9372535090641D-01 -1.3880188110872D-01
156  1.5500000000000D+00  2.7363530480851D-01 -1.3532095205888D-01
157  1.5600000000000D+00  2.5437216076048D-01 -1.3147127085822D-01
158  1.5700000000000D+00  2.3592793500193D-01 -1.2727024729452D-01
159  1.5800000000000D+00  2.1829223657371D-01 -1.2273805294367D-01
160  1.5900000000000D+00  2.0145246612193D-01 -1.1789757426040D-01
161  1.6000000000000D+00  1.8539344714831D-01 -1.1277420966047D-01
162  1.6100000000000D+00  1.7009772460472D-01 -1.0739576800172D-01
163  1.6200000000000D+00  1.5554694749186D-01 -1.0179254333659D-01
164  1.6300000000000D+00  1.4172284671273D-01 -9.5997290859786D-02
165  1.6400000000000D+00  1.2860851811402D-01 -9.0045250496655D-02
166  1.6500000000000D+00  1.1618888100669D-01 -8.3973971426774D-02
167  1.6600000000000D+00  1.0445023142487D-01 -7.7822932597935D-02
168  1.6700000000000D+00  9.3380235845631D-02 -7.1633222595889D-02
169  1.6800000000000D+00  8.2967900712769D-02 -6.5447190317496D-02
170  1.6900000000000D+00  7.3203435466893D-02 -5.9308056561959D-02
171  1.7000000000000D+00  6.4078130406243D-02 -5.3259513271447D-02
172  1.7100000000000D+00  5.5584201899415D-02 -4.7345305508783D-02
173  1.7200000000000D+00  4.7714625223202D-02 -4.1608804439376D-02
174  1.7300000000000D+00  4.0462955343967D-02 -3.6092576182451D-02
175  1.7400000000000D+00  3.3823138894640D-02 -3.0837951058352D-02
176  1.7500000000000D+00  2.7789321377971D-02 -2.5884599288240D-02
177  1.7600000000000D+00  2.2355652472959D-02 -2.1270117203794D-02
178  1.7700000000000D+00  1.7516093595128D-02 -1.7029629841974D-02
179  1.7800000000000D+00  1.3264230582059D-02 -1.3195414094789D-02
180  1.7900000000000D+00  9.5934268741950D-03 -9.7972891997650D-03
181  1.8000000000000D+00  6.4958898999833D-03 -6.8605808204967D-03
182  1.8100000000000D+00  3.9612766409374D-03 -4.4015516374159D-03
183  1.8200000000000D+00  1.9816887379955D-03 -2.4375804880745D-03
184  1.8300000000000D+00  5.4800267876613D-04 -1.0062142324159D-03
185  1.8400000000000D+00 -3.7056731592017D-04 -1.1371427646496D-04
186  1.8500000000000D+00 -7.4175286894528D-04  2.8584652022397D-04
187  1.8600000000000D+00 -5.7256851010550D-04  2.7990272880571D-04
188  1.8700000000000D+00 -1.6671453368572D-04  8.7308585528487D-05
189  1.8800000000000D+00  8.1856579930470D-05 -4.3882376640774D-05
190  1.8900000000000D+00  7.2988312807156D-05 -3.9938372361556D-05
191  1.9000000000000D+00 -1.0145176716184D-05  5.2456880649150D-06
192  1.9100000000000D+00 -2.0444406824802D-05  1.0675266110094D-05
193  1.9200000000000D+00  6.3050594485421D-08 -2.6646705251984D-08
194  1.9300000000000D+00  2.1255594050154D-06 -8.9831278235011D-07
195  1.9400000000000D+00  7.6481280126267D-07 -3.2322837642558D-07
196  1.9500000000000D+00  0.0000000000000D+00  0.0000000000000D+00
197  1.9600000000000D+00  0.0000000000000D+00  0.0000000000000D+00
198  1.9700000000000D+00  0.0000000000000D+00  0.0000000000000D+00
199  1.9800000000000D+00  0.0000000000000D+00  0.0000000000000D+00
200  1.9900000000000D+00  0.0000000000000D+00  0.0000000000000D+00
201  2.0000000000000D+00  0.0000000000000D+00  0.0000000000000D+00
202  2.0100000000000D+00  0.0000000000000D+00  0.0000000000000D+00
203  2.0200000000000D+00  0.0000000000000D+00  0.0000000000000D+00
204  2.0300000000000D+00  0.0000000000000D+00  0.0000000000000D+00
205  2.0400000000000D+00  0.0000000000000D+00  0.0000000000000D+00
206  2.0500000000000D+00  0.0000000000000D+00  0.0000000000000D+00
207  2.0600000000000D+00  0.0000000000000D+00  0.0000000000000D+00
208  2.0700000000000D+00  0.0000000000000D+00  0.0000000000000D+00
209  2.0800000000000D+00  0.0000000000000D+00  0.0000000000000D+00
210  2.0900000000000D+00  0.0000000000000D+00  0.0000000000000D+00
211  2.1000000000000D+00  0.0000000000000D+00  0.0000000000000D+00
212  2.1100000000000D+00  0.0000000000000D+00  0.0000000000000D+00
213  2.1200000000000D+00  0.0000000000000D+00  0.0000000000000D+00
214  2.1300000000000D+00  0.0000000000000D+00  0.0000000000000D+00
215  2.1400000000000D+00  0.0000000000000D+00  0.0000000000000D+00
216  2.1500000000000D+00  0.0000000000000D+00  0.0000000000000D+00
217  2.1600000000000D+00  0.0000000000000D+00  0.0000000000000D+00
218  2.1700000000000D+00  0.0000000000000D+00  0.0000000000000D+00
219  2.1800000000000D+00  0.0000000000000D+00  0.0000000000000D+00
220  2.1900000000000D+00  0.0000000000000D+00  0.0000000000000D+00
221  2.2000000000000D+00  0.0000000000000D+00  0.0000000000000D+00
222  2.2100000000000D+00  0.0000000000000D+00  0.0000000000000D+00
223  2.2200000000000D+00  0.0000000000000D+00  0.0000000000000D+00
224  2.2300000000000D+00  0.0000000000000D+00  0.0000000000000D+00
225  2.2400000000000D+00  0.0000000000000D+00  0.0000000000000D+00
226  2.2500000000000D+00  0.0000000000000D+00  0.0000000000000D+00
227  2.2600000000000D+00  0.0000000000000D+00  0.0000000000000D+00
228  2.2700000000000D+00  0.0000000000000D+00  0.0000000000000D+00
229  2.2800000000000D+00  0.0000000000000D+00  0.0000000000000D+00
230  2.2900000000000D+00  0.0000000000000D+00  0.0000000000000D+00
231  2.3000000000000D+00  0.0000000000000D+00  0.0000000000000D+00
232  2.3100000000000D+00  0.0000000000000D+00  0.0000000000000D+00
233  2.3200000000000D+00  0.0000000000000D+00  0.0000000000000D+00
234  2.3300000000000D+00  0.0000000000000D+00  0.0000000000000D+00
235  2.3400000000000D+00  0.0000000000000D+00  0.0000000000000D+00
236  2.3500000000000D+00  0.0000000000000D+00  0.0000000000000D+00
237  2.3600000000000D+00  0.0000000000000D+00  0.0000000000000D+00
238  2.3700000000000D+00  0.0000000000000D+00  0.0000000000000D+00
239  2.3800000000000D+00  0.0000000000000D+00  0.0000000000000D+00
240  2.3900000000000D+00  0.0000000000000D+00  0.0000000000000D+00
241  2.4000000000000D+00  0.0000000000000D+00  0.0000000000000D+00
242  2.4100000000000D+00  0.0000000000000D+00  0.0000000000000D+00
243  2.4200000000000D+00  0.0000000000000D+00  0.0000000000000D+00
244  2.4300000000000D+00  0.0000000000000D+00  0.0000000000000D+00
245  2.4400000000000D+00  0.0000000000000D+00  0.0000000000000D+00
246  2.4500000000000D+00  0.0000000000000D+00  0.0000000000000D+00
247  2.4600000000000D+00  0.0000000000000D+00  0.0000000000000D+00
248  2.4700000000000D+00  0.0000000000000D+00  0.0000000000000D+00
249  2.4800000000000D+00  0.0000000000000D+00  0.0000000000000D+00
250  2.4900000000000D+00  0.0000000000000D+00  0.0000000000000D+00
251  2.5000000000000D+00  0.0000000000000D+00  0.0000000000000D+00
252  2.5100000000000D+00  0.0000000000000D+00  0.0000000000000D+00
253  2.5200000000000D+00  0.0000000000000D+00  0.0000000000000D+00
254  2.5300000000000D+00  0.0000000000000D+00  0.0000000000000D+00
255  2.5400000000000D+00  0.0000000000000D+00  0.0000000000000D+00
256  2.5500000000000D+00  0.0000000000000D+00  0.0000000000000D+00
257  2.5600000000000D+00  0.0000000000000D+00  0.0000000000000D+00
258  2.5700000000000D+00  0.0000000000000D+00  0.0000000000000D+00
259  2.5800000000000D+00  0.0000000000000D+00  0.0000000000000D+00
260  2.5900000000000D+00  0.0000000000000D+00  0.0000000000000D+00
261  2.6000000000000D+00  0.0000000000000D+00  0.0000000000000D+00
262  2.6100000000000D+00  0.0000000000000D+00  0.0000000000000D+00
263  2.6200000000000D+00  0.0000000000000D+00  0.0000000000000D+00
264  2.6300000000000D+00  0.0000000000000D+00  0.0000000000000D+00
265  2.6400000000000D+00  0.0000000000000D+00  0.0000000000000D+00
266  2.6500000000000D+00  0.0000000000000D+00  0.0000000000000D+00
267  2.6600000000000D+00  0.0000000000000D+00  0.0000000000000D+00
268  2.6700000000000D+00  0.0000000000000D+00  0.0000000000000D+00
269  2.6800000000000D+00  0.0000000000000D+00  0.0000000000000D+00
270  2.6900000000000D+00  0.0000000000000D+00  0.0000000000000D+00
271  2.7000000000000D+00  0.0000000000000D+00  0.0000000000000D+00
272  2.7100000000000D+00  0.0000000000000D+00  0.0000000000000D+00
273  2.7200000000000D+00  0.0000000000000D+00  0.0000000000000D+00
274  2.7300000000000D+00  0.0000000000000D+00  0.0000000000000D+00
275  2.7400000000000D+00  0.0000000000000D+00  0.0000000000000D+00
276  2.7500000000000D+00  0.0000000000000D+00  0.0000000000000D+00
277  2.7600000000000D+00  0.0000000000000D+00  0.0000000000000D+00
278  2.7700000000000D+00  0.0000000000000D+00  0.0000000000000D+00
279  2.7800000000000D+00  0.0000000000000D+00  0.0000000000000D+00
280  2.7900000000000D+00  0.0000000000000D+00  0.0000000000000D+00
281  2.8000000000000D+00  0.0000000000000D+00  0.0000000000000D+00
282  2.8100000000000D+00  0.0000000000000D+00  0.0000000000000D+00
283  2.8200000000000D+00  0.0000000000000D+00  0.0000000000000D+00
284  2.8300000000000D+00  0.0000000000000D+00  0.0000000000000D+00
285  2.8400000000000D+00  0.0000000000000D+00  0.0000000000000D+00
286  2.8500000000000D+00  0.0000000000000D+00  0.0000000000000D+00
287  2.8600000000000D+00  0.0000000000000D+00  0.0000000000000D+00
288  2.8700000000000D+00  0.0000000000000D+00  0.0000000000000D+00
289  2.8800000000000D+00  0.0000000000000D+00  0.0000000000000D+00
290  2.8900000000000D+00  0.0000000000000D+00  0.0000000000000D+00
291  2.9000000000000D+00  0.0000000000000D+00  0.0000000000000D+00
292  2.9100000000000D+00  0.0000000000000D+00  0.0000000000000D+00
293  2.9200000000000D+00  0.0000000000000D+00  0.0000000000000D+00
294  2.9300000000000D+00  0.0000000000000D+00  0.0000000000000D+00
295  2.9400000000000D+00  0.0000000000000D+00  0.0000000000000D+00
296  2.9500000000000D+00  0.0000000000000D+00  0.0000000000000D+00
297  2.9600000000000D+00  0.0000000000000D+00  0.0000000000000D+00
298  2.9700000000000D+00  0.0000000000000D+00  0.0000000000000D+00
299  2.9800000000000D+00  0.0000000000000D+00  0.0000000000000D+00
300  2.9900000000000D+00  0.0000000000000D+00  0.0000000000000D+00
301  3.0000000000000D+00  0.0000000000000D+00  0.0000000000000D+00
302  3.0100000000000D+00  0.0000000000000D+00  0.0000000000000D+00
303  3.0200000000000D+00  0.0000000000000D+00  0.0000000000000D+00
304  3.0300000000000D+00  0.0000000000000D+00  0.0000000000000D+00
305  3.0400000000000D+00  0.0000000000000D+00  0.0000000000000D+00
306  3.0500000000000D+00  0.0000000000000D+00  0.0000000000000D+00
307  3.0600000000000D+00  0.0000000000000D+00  0.0000000000000D+00
308  3.0700000000000D+00  0.0000000000000D+00  0.0000000000000D+00
309  3.0800000000000D+00  0.0000000000000D+00  0.0000000000000D+00
310  3.0900000000000D+00  0.0000000000000D+00  0.0000000000000D+00
311  3.1000000000000D+00  0.0000000000000D+00  0.0000000000000D+00
312  3.1100000000000D+00  0.0000000000000D+00  0.0000000000000D+00
313  3.1200000000000D+00  0.0000000000000D+00  0.0000000000000D+00
314  3.1300000000000D+00  0.0000000000000D+00  0.0000000000000D+00
315  3.1400000000000D+00  0.0000000000000D+00  0.0000000000000D+00
316  3.1500000000000D+00  0.0000000000000D+00  0.0000000000000D+00
317  3.1600000000000D+00  0.0000000000000D+00  0.0000000000000D+00
318  3.1700000000000D+00  0.0000000000000D+00  0.0000000000000D+00
319  3.1800000000000D+00  0.0000000000000D+00  0.0000000000000D+00
320  3.1900000000000D+00  0.0000000000000D+00  0.0000000000000D+00
321  3.2000000000000D+00  0.0000000000000D+00  0.0000000000000D+00
322  3.2100000000000D+00  0.0000000000000D+00  0.0000000000000D+00
323  3.2200000000000D+00  0.0000000000000D+00  0.0000000000000D+00
324  3.2300000000000D+00  0.0000000000000D+00  0.0000000000000D+00
325  3.2400000000000D+00  0.0000000000000D+00  0.0000000000000D+00
326  3.2500000000000D+00  0.0000000000000D+00  0.0000000000000D+00
327  3.2600000000000D+00  0.0000000000000D+00  0.0000000000000D+00
328  3.2700000000000D+00  0.0000000000000D+00  0.0000000000000D+00
329  3.2800000000000D+00  0.0000000000000D+00  0.0000000000000D+00
330  3.2900000000000D+00  0.0000000000000D+00  0.0000000000000D+00
331  3.3000000000000D+00  0.0000000000000D+00  0.0000000000000D+00
332  3.3100000000000D+00  0.0000000000000D+00  0.0000000000000D+00
333  3.3200000000000D+00  0.0000000000000D+00  0.0000000000000D+00
334  3.3300000000000D+00  0.0000000000000D+00  0.0000000000000D+00
335  3.3400000000000D+00  0.0000000000000D+00  0.0000000000000D+00
336  3.3500000000000D+00  0.0000000000000D+00  0.0000000000000D+00
337  3.3600000000000D+00  0.0000000000000D+00  0.0000000000000D+00
338  3.3700000000000D+00  0.0000000000000D+00  0.0000000000000D+00
339  3.3800000000000D+00  0.0000000000000D+00  0.0000000000000D+00
340  3.3900000000000D+00  0.0000000000000D+00  0.0000000000000D+00
341  3.4000000000000D+00  0.0000000000000D+00  0.0000000000000D+00
342  3.4100000000000D+00  0.0000000000000D+00  0.0000000000000D+00
343  3.4200000000000D+00  0.0000000000000D+00  0.0000000000000D+00
344  3.4300000000000D+00  0.0000000000000D+00  0.0000000000000D+00
345  3.4400000000000D+00  0.0000000000000D+00  0.0000000000000D+00
346  3.4500000000000D+00  0.0000000000000D+00  0.0000000000000D+00
347  3.4600000000000D+00  0.0000000000000D+00  0.0000000000000D+00
348  3.4700000000000D+00  0.0000000000000D+00  0.0000000000000D+00
349  3.4800000000000D+00  0.0000000000000D+00  0.0000000000000D+00
350  3.4900000000000D+00  0.0000000000000D+00  0.0000000000000D+00
351  3.5000000000000D+00  0.0000000000000D+00  0.0000000000000D+00
352  3.5100000000000D+00  0.0000000000000D+00  0.0000000000000D+00
353  3.5200000000000D+00  0.0000000000000D+00  0.0000000000000D+00
354  3.5300000000000D+00  0.0000000000000D+00  0.0000000000000D+00
355  3.5400000000000D+00  0.0000000000000D+00  0.0000000000000D+00
356  3.5500000000000D+00  0.0000000000000D+00  0.0000000000000D+00
357  3.5600000000000D+00  0.0000000000000D+00  0.0000000000000D+00
358  3.5700000000000D+00  0.0000000000000D+00  0.0000000000000D+00
359  3.5800000000000D+00  0.0000000000000D+00  0.0000000000000D+00
360  3.5900000000000D+00  0.0000000000000D+00  0.0000000000000D+00
361  3.6000000000000D+00  0.0000000000000D+00  0.0000000000000D+00
362  3.6100000000000D+00  0.0000000000000D+00  0.0000000000000D+00
363  3.6200000000000D+00  0.0000000000000D+00  0.0000000000000D+00
364  3.6300000000000D+00  0.0000000000000D+00  0.0000000000000D+00
365  3.6400000000000D+00  0.0000000000000D+00  0.0000000000000D+00
366  3.6500000000000D+00  0.0000000000000D+00  0.0000000000000D+00
367  3.6600000000000D+00  0.0000000000000D+00  0.0000000000000D+00
368  3.6700000000000D+00  0.0000000000000D+00  0.0000000000000D+00
369  3.6800000000000D+00  0.0000000000000D+00  0.0000000000000D+00
370  3.6900000000000D+00  0.0000000000000D+00  0.0000000000000D+00
371  3.7000000000000D+00  0.0000000000000D+00  0.0000000000000D+00
372  3.7100000000000D+00  0.0000000000000D+00  0.0000000000000D+00
373  3.7200000000000D+00  0.0000000000000D+00  0.0000000000000D+00
374  3.7300000000000D+00  0.0000000000000D+00  0.0000000000000D+00
375  3.7400000000000D+00  0.0000000000000D+00  0.0000000000000D+00
376  3.7500000000000D+00  0.0000000000000D+00  0.0000000000000D+00
377  3.7600000000000D+00  0.0000000000000D+00  0.0000000000000D+00
378  3.7700000000000D+00  0.0000000000000D+00  0.0000000000000D+00
379  3.7800000000000D+00  0.0000000000000D+00  0.0000000000000D+00
380  3.7900000000000D+00  0.0000000000000D+00  0.0000000000000D+00
381  3.8000000000000D+00  0.0000000000000D+00  0.0000000000000D+00
382  3.8100000000000D+00  0.0000000000000D+00  0.0000000000000D+00
383  3.8200000000000D+00  0.0000000000000D+00  0.0000000000000D+00
384  3.8300000000000D+00  0.0000000000000D+00  0.0000000000000D+00
385  3.8400000000000D+00  0.0000000000000D+00  0.0000000000000D+00
386  3.8500000000000D+00  0.0000000000000D+00  0.0000000000000D+00
387  3.8600000000000D+00  0.0000000000000D+00  0.0000000000000D+00
388  3.8700000000000D+00  0.0000000000000D+00  0.0000000000000D+00
389  3.8800000000000D+00  0.0000000000000D+00  0.0000000000000D+00
390  3.8900000000000D+00  0.0000000000000D+00  0.0000000000000D+00
391  3.9000000000000D+00  0.0000000000000D+00  0.0000000000000D+00
392  3.9100000000000D+00  0.0000000000000D+00  0.0000000000000D+00
393  3.9200000000000D+00  0.0000000000000D+00  0.0000000000000D+00
394  3.9300000000000D+00  0.0000000000000D+00  0.0000000000000D+00
395  3.9400000000000D+00  0.0000000000000D+00  0.0000000000000D+00
396  3.9500000000000D+00  0.0000000000000D+00  0.0000000000000D+00
397  3.9600000000000D+00  0.0000000000000D+00  0.0000000000000D+00
398  3.9700000000000D+00  0.0000000000000D+00  0.0000000000000D+00
399  3.9800000000000D+00  0.0000000000000D+00  0.0000000000000D+00
400  3.9900000000000D+00  0.0000000000000D+00  0.0000000000000D+00
401  4.0000000000000D+00  0.0000000000000D+00  0.0000000000000D+00
402  4.0100000000000D+00  0.0000000000000D+00  0.0000000000000D+00
403  4.0200000000000D+00  0.0000000000000D+00  0.0000000000000D+00
404  4.0300000000000D+00  0.0000000000000D+00  0.0000000000000D+00
405  4.0400000000000D+00  0.0000000000000D+00  0.0000000000000D+00
406  4.0500000000000D+00  0.0000000000000D+00  0.0000000000000D+00
407  4.0600000000000D+00  0.0000000000000D+00  0.0000000000000D+00
408  4.0700000000000D+00  0.0000000000000D+00  0.0000000000000D+00
409  4.0800000000000D+00  0.0000000000000D+00  0.0000000000000D+00
410  4.0900000000000D+00  0.0000000000000D+00  0.0000000000000D+00
411  4.1000000000000D+00  0.0000000000000D+00  0.0000000000000D+00
412  4.1100000000000D+00  0.0000000000000D+00  0.0000000000000D+00
413  4.1200000000000D+00  0.0000000000000D+00  0.0000000000000D+00
414  4.1300000000000D+00  0.0000000000000D+00  0.0000000000000D+00
415  4.1400000000000D+00  0.0000000000000D+00  0.0000000000000D+00
416  4.1500000000000D+00  0.0000000000000D+00  0.0000000000000D+00
417  4.1600000000000D+00  0.0000000000000D+00  0.0000000000000D+00
418  4.1700000000000D+00  0.0000000000000D+00  0.0000000000000D+00
419  4.1800000000000D+00  0.0000000000000D+00  0.0000000000000D+00
420  4.1900000000000D+00  0.0000000000000D+00  0.0000000000000D+00
421  4.2000000000000D+00  0.0000000000000D+00  0.0000000000000D+00
422  4.2100000000000D+00  0.0000000000000D+00  0.0000000000000D+00
423  4.2200000000000D+00  0.0000000000000D+00  0.0000000000000D+00
424  4.2300000000000D+00  0.0000000000000D+00  0.0000000000000D+00
425  4.2400000000000D+00  0.0000000000000D+00  0.0000000000000D+00
426  4.2500000000000D+00  0.0000000000000D+00  0.0000000000000D+00
427  4.2600000000000D+00  0.0000000000000D+00  0.0000000000000D+00
428  4.2700000000000D+00  0.0000000000000D+00  0.0000000000000D+00
429  4.2800000000000D+00  0.0000000000000D+00  0.0000000000000D+00
430  4.2900000000000D+00  0.0000000000000D+00  0.0000000000000D+00
431  4.3000000000000D+00  0.0000000000000D+00  0.0000000000000D+00
432  4.3100000000000D+00  0.0000000000000D+00  0.0000000000000D+00
433  4.3200000000000D+00  0.0000000000000D+00  0.0000000000000D+00
434  4.3300000000000D+00  0.0000000000000D+00  0.0000000000000D+00
435  4.3400000000000D+00  0.0000000000000D+00  0.0000000000000D+00
436  4.3500000000000D+00  0.0000000000000D+00  0.0000000000000D+00
437  4.3600000000000D+00  0.0000000000000D+00  0.0000000000000D+00
438  4.3700000000000D+00  0.0000000000000D+00  0.0000000000000D+00
439  4.3800000000000D+00  0.0000000000000D+00  0.0000000000000D+00
440  4.3900000000000D+00  0.0000000000000D+00  0.0000000000000D+00
441  4.4000000000000D+00  0.0000000000000D+00  0.0000000000000D+00
442  4.4100000000000D+00  0.0000000000000D+00  0.0000000000000D+00
443  4.4200000000000D+00  0.0000000000000D+00  0.0000000000000D+00