<?xml version="1.0" encoding="UTF-8" ?>
<psml version="1.1" energy_unit="hartree" length_unit="bohr"
 uuid="def18af0-539e-11e8-6dfa-39fc7fb73bbe"
 xmlns="http://esl.cecam.org/PSML/ns/1.1">
<provenance creator="ONCVPSP-3.3.0+psml-3.3.0-73 (fully-relativistic)"
 date="2018-05-09">
<annotation action="semilocal-pseudopotential-generation"
 action-cont="projectors-generation" />
<input-file name="oncvpsp-input">
<![CDATA[# atsym z nc nv iexc psfile
As 33 5 3 -116133 upf
# n l f
1 0 2.0
2 0 2.0
2 1 6.0
3 0 2.0
3 1 6.0
3 2 10.0
4 0 2.0
4 1 3.0
# lmax
2
# l rc ep ncon nbas qcut
0 1.75 0.0 3 8 5.3
1 1.7 0.0 4 8 6.0
2 1.8 0.0 4 7 9.0
# lloc lpopt rc5 dvloc0
4 5 1.6 0.0
# l nproj debl
0 2 4.5
1 2 4.8
2 2 2.5
# icmod fcfact rcfact
3 5.0 1.4
# epsh1 epsh2 depsh
-12.0 12.0 0.02
# rlmax drl
6.0 0.01
 0
]]>
</input-file>
</provenance>
<pseudo-atom-spec atomic-label="As" atomic-number="33" z-pseudo="15"
 flavor="Hamann&apos;s oncvpsp" relativity="dirac" spin-dft="no"
 core-corrections="yes">
<annotation pseudo-energy="-95.7722573287" />
<exchange-correlation>
<annotation oncvpsp-xc-code="-116133" oncvpsp-xc-type="libxc-interface" />
<libxc-info number-of-functionals="2">
<functional name="Perdew, Burke &amp; Ernzerhof SOL (GGA)" type="exchange"
 id="116" />
<functional name="Perdew, Burke &amp; Ernzerhof SOL (GGA)" type="correlation"
 id="133" />
</libxc-info>
</exchange-correlation>
<valence-configuration total-valence-charge="15">
<shell n="3" l="d" occupation="10" />
<shell n="4" l="s" occupation="2" />
<shell n="4" l="p" occupation="3" />
</valence-configuration>
</pseudo-atom-spec>
<grid npts="457">
<annotation type="sampled from oncvpsp log grid"
 recipe="r(i:1..N) = r1*exp(a*(i-1)) + r=0; resampled"
 recipe-cont="r1: scale; a: step" scale="0.151515151515E-04"
 step="0.119285708653E-01" delta="0.500000000000E-02" rmax="44.2319075471" />
<grid-data>
  0.000000000000E+00  5.050863755537E-03  1.008870397413E-02  1.513466471039E-02
  2.015139445527E-02  2.527754206661E-02  3.059306869357E-02  3.572479163279E-02
  4.073383894775E-02  4.589448142461E-02  5.109578544660E-02  5.621201837620E-02
  6.184054090387E-02  6.722593745724E-02  7.308032240581E-02  7.850250761159E-02
  8.432699115759E-02  8.950950742873E-02  9.501052759205E-02  1.008496260636E-01
  1.070475802516E-01  1.122790953457E-01  1.177662794620E-01  1.235216273841E-01
  1.295582445274E-01  1.358898767811E-01  1.425309418088E-01  1.477238753743E-01
  1.531060068687E-01  1.586842294782E-01  1.644656875329E-01  1.704577856578E-01
  1.766681982559E-01  1.831048793374E-01  1.897760727067E-01  1.966903225206E-01
  2.038564842315E-01  2.112837359290E-01  2.163849704493E-01  2.216093691758E-01
  2.269599057852E-01  2.324396257505E-01  2.380516480746E-01  2.437991670657E-01
  2.496854541554E-01  2.557138597605E-01  2.618878151905E-01  2.682108346005E-01
  2.746865169911E-01  2.813185482573E-01  2.881107032865E-01  2.950668481066E-01
  3.021909420873E-01  3.094870401931E-01  3.169592952915E-01  3.246119605170E-01
  3.324493916917E-01  3.404760498047E-01  3.486965035512E-01  3.571154319329E-01
  3.657376269215E-01  3.745679961859E-01  3.836115658858E-01  3.928734835326E-01
  4.023590209190E-01  4.120735771201E-01  4.220226815661E-01  4.270869537448E-01
  4.322119971898E-01  4.373985411561E-01  4.426473236499E-01  4.479590915337E-01
  4.533346006321E-01  4.587746158397E-01  4.642799112298E-01  4.698512701646E-01
  4.754894854065E-01  4.811953592314E-01  4.869697035422E-01  4.928133399847E-01
  4.987271000645E-01  5.047118252653E-01  5.107683671685E-01  5.168975875745E-01
  5.231003586254E-01  5.293775629289E-01  5.357300936840E-01  5.421588548082E-01
  5.486647610659E-01  5.552487381987E-01  5.619117230571E-01  5.686546637338E-01
  5.754785196986E-01  5.823842619350E-01  5.893728730782E-01  5.964453475551E-01
  6.036026917258E-01  6.108459240265E-01  6.181760751148E-01  6.255941880162E-01
  6.331013182724E-01  6.406985340917E-01  6.483869165008E-01  6.561675594988E-01
  6.640415702128E-01  6.720100690553E-01  6.800741898840E-01  6.882350801626E-01
  6.964939011246E-01  7.048518279380E-01  7.133100498733E-01  7.218697704718E-01
  7.305322077174E-01  7.392985942101E-01  7.481701773406E-01  7.571482194687E-01
  7.662339981023E-01  7.754288060795E-01  7.847339517525E-01  7.941507591735E-01
  8.036805682836E-01  8.133247351030E-01  8.230846319242E-01  8.329616475073E-01
  8.429571872774E-01  8.530726735247E-01  8.633095456070E-01  8.736692601543E-01
  8.841532912762E-01  8.947631307715E-01  9.055002883407E-01  9.163662918008E-01
  9.273626873024E-01  9.384910395501E-01  9.497529320247E-01  9.611499672090E-01
  9.726837668155E-01  9.843559720172E-01  9.961682436815E-01  1.008122262606E+00
  1.020219729757E+00  1.032462366514E+00  1.044851914912E+00  1.057390137891E+00
  1.070078819546E+00  1.082919765380E+00  1.095914802565E+00  1.109065780196E+00
  1.122374569558E+00  1.135843064393E+00  1.149473181165E+00  1.163266859339E+00
  1.177226061651E+00  1.191352774391E+00  1.205649007684E+00  1.220116795776E+00
  1.234758197326E+00  1.249575295693E+00  1.264570199242E+00  1.279745041633E+00
  1.295101982132E+00  1.310643205918E+00  1.326370924389E+00  1.342287375482E+00
  1.358394823987E+00  1.374695561875E+00  1.391191908618E+00  1.407886211521E+00
  1.424780846059E+00  1.441878216212E+00  1.459180754807E+00  1.476690923864E+00
  1.494411214951E+00  1.512344149530E+00  1.530492279324E+00  1.548858186676E+00
  1.567444484916E+00  1.586253818735E+00  1.605288864560E+00  1.624552330935E+00
  1.644046958906E+00  1.663775522413E+00  1.683740828682E+00  1.703945718626E+00
  1.724393067250E+00  1.745085784057E+00  1.766026813465E+00  1.787219135227E+00
  1.808665764850E+00  1.830369754028E+00  1.852334191076E+00  1.874562201369E+00
  1.897056947786E+00  1.919821631159E+00  1.942859490733E+00  1.966173804622E+00
  1.989767890277E+00  2.013645104960E+00  2.037808846220E+00  2.062262552375E+00
  2.087009703003E+00  2.112053819439E+00  2.137398465272E+00  2.163047246856E+00
  2.189003813818E+00  2.215271859584E+00  2.241855121899E+00  2.268757383362E+00
  2.295982471962E+00  2.323534261625E+00  2.351416672765E+00  2.379633672838E+00
  2.408189276912E+00  2.437087548235E+00  2.466332598814E+00  2.495928590000E+00
  2.525879733080E+00  2.556190289877E+00  2.586864573355E+00  2.617906948235E+00
  2.649321831614E+00  2.681113693594E+00  2.713287057917E+00  2.745846502612E+00
  2.778796660643E+00  2.812142220571E+00  2.845887927218E+00  2.880038582344E+00
  2.914599045332E+00  2.949574233876E+00  2.984969124683E+00  3.020788754179E+00
  3.057038219229E+00  3.093722677860E+00  3.130847349994E+00  3.168417518194E+00
  3.206438528413E+00  3.244915790754E+00  3.283854780243E+00  3.323261037606E+00
  3.363140170057E+00  3.403497852097E+00  3.444339826323E+00  3.485671904239E+00
  3.527499967089E+00  3.569829966694E+00  3.612667926295E+00  3.656019941410E+00
  3.699892180707E+00  3.744290886876E+00  3.789222377518E+00  3.834693046048E+00
  3.880709362601E+00  3.927277874952E+00  3.974405209452E+00  4.022098071965E+00
  4.070363248829E+00  4.119207607815E+00  4.168638099108E+00  4.218661756298E+00
  4.269285697373E+00  4.320517125742E+00  4.372363331251E+00  4.424831691226E+00
  4.477929671520E+00  4.531664827579E+00  4.586044805510E+00  4.641077343176E+00
  4.696770271294E+00  4.753131514549E+00  4.810169092724E+00  4.867891121837E+00
  4.926305815299E+00  4.985421485082E+00  5.045246542903E+00  5.105789501418E+00
  5.167058975435E+00  5.229063683140E+00  5.291812447338E+00  5.355314196706E+00
  5.419577967067E+00  5.484612902671E+00  5.550428257503E+00  5.617033396593E+00
  5.684437797353E+00  5.752651050921E+00  5.821682863532E+00  5.891543057894E+00
  5.962241574589E+00  6.033788473484E+00  6.106193935166E+00  6.179468262388E+00
  6.253621881536E+00  6.328665344115E+00  6.404609328244E+00  6.481464640183E+00
  6.559242215865E+00  6.637953122456E+00  6.717608559925E+00  6.798219862644E+00
  6.879798500996E+00  6.962356083008E+00  7.045904356004E+00  7.130455208276E+00
  7.216020670775E+00  7.302612918825E+00  7.390244273851E+00  7.478927205137E+00
  7.568674331599E+00  7.659498423578E+00  7.751412404661E+00  7.844429353517E+00
  7.938562505759E+00  8.033825255828E+00  8.130231158898E+00  8.227793932805E+00
  8.326527459998E+00  8.426445789518E+00  8.527563138992E+00  8.629893896660E+00
  8.733452623420E+00  8.838254054901E+00  8.944313103560E+00  9.051644860803E+00
  9.160264599132E+00  9.270187774322E+00  9.381430027614E+00  9.494007187945E+00
  9.607935274201E+00  9.723230497491E+00  9.839909263461E+00  9.957988174622E+00
  1.007748403272E+01  1.019841384111E+01  1.032079480720E+01  1.044464434489E+01
  1.056998007703E+01  1.069681983795E+01  1.082518167601E+01  1.095508385612E+01
  1.108654486239E+01  1.121958340074E+01  1.135421840155E+01  1.149046902237E+01
  1.162835465064E+01  1.176789490645E+01  1.190910964532E+01  1.205201896107E+01
  1.219664318860E+01  1.234300290686E+01  1.249111894175E+01  1.264101236905E+01
  1.279270451748E+01  1.294621697169E+01  1.310157157535E+01  1.325879043425E+01
  1.341789591946E+01  1.357891067049E+01  1.374185759854E+01  1.390675988972E+01
  1.407364100840E+01  1.424252470050E+01  1.441343499691E+01  1.458639621687E+01
  1.476143297147E+01  1.493857016713E+01  1.511783300913E+01  1.529924700524E+01
  1.548283796931E+01  1.566863202494E+01  1.585665560924E+01  1.604693547655E+01
  1.623949870227E+01  1.643437268670E+01  1.663158515894E+01  1.683116418084E+01
  1.703313815101E+01  1.723753580883E+01  1.744438623853E+01  1.765371887339E+01
  1.786556349987E+01  1.807995026187E+01  1.829690966501E+01  1.851647258100E+01
  1.873867025197E+01  1.896353429499E+01  1.919109670653E+01  1.942138986701E+01
  1.965444654541E+01  1.989029990396E+01  2.012898350281E+01  2.037053130484E+01
  2.061497768050E+01  2.086235741266E+01  2.111270570162E+01  2.136605817003E+01
  2.162245086807E+01  2.188192027849E+01  2.214450332183E+01  2.241023736170E+01
  2.267916021004E+01  2.295131013256E+01  2.322672585415E+01  2.350544656440E+01
  2.378751192317E+01  2.407296206625E+01  2.436183761104E+01  2.465417966238E+01
  2.495002981832E+01  2.524943017614E+01  2.555242333826E+01  2.585905241832E+01
  2.616936104734E+01  2.648339337990E+01  2.680119410046E+01  2.712280842967E+01
  2.744828213082E+01  2.777766151639E+01  2.811099345459E+01  2.844832537605E+01
  2.878970528056E+01  2.913518174393E+01  2.948480392485E+01  2.983862157195E+01
  3.019668503081E+01  3.055904525118E+01  3.092575379420E+01  3.129686283973E+01
  3.167242519381E+01  3.205249429613E+01  3.243712422768E+01  3.282636971842E+01
  3.322028615504E+01  3.361892958890E+01  3.402235674397E+01  3.443062502489E+01
  3.484379252519E+01  3.526191803549E+01  3.568506105192E+01  3.611328178454E+01
  3.654664116596E+01  3.698520085995E+01  3.742902327027E+01  3.787817154951E+01
  3.833270960811E+01  3.879270212340E+01  3.925821454888E+01  3.972931312347E+01
  4.020606488095E+01  4.068853765952E+01  4.117680011144E+01  4.167092171277E+01
  4.217097277333E+01  4.267702444661E+01  4.318914873997E+01  4.370741852485E+01
  4.423190754715E+01
</grid-data>
</grid>
<valence-charge total-charge="15" is-unscreening-charge="yes"
 rescaled-to-z-pseudo="no">
<radfunc>
<data npts="457">
  1.487544616618E-03  1.496125526107E-03  1.530093082900E-03  1.614493481103E-03
  1.789417786833E-03  2.121257181234E-03  2.711622414659E-03  3.617705965225E-03
  4.929265702690E-03  6.849273730304E-03  9.516205824753E-03  1.301747921540E-02
  1.808368634653E-02  2.434637863553E-02  3.300471471345E-02  4.301771207178E-02
  5.622981596110E-02  7.040633438873E-02  8.825270507918E-02  1.107062350766E-01
  1.389367005577E-01  1.666481504553E-01  1.998874218781E-01  2.397291787379E-01
  2.874470163721E-01  3.445469267139E-01  4.128052644243E-01  4.725655560262E-01
  5.407825405790E-01  6.185945625218E-01  7.072791116204E-01  8.082664507772E-01
  9.231537318358E-01  1.053719366463E+00  1.201937332474E+00  1.369990990255E+00
  1.560285856606E+00  1.775460632067E+00  1.934144902835E+00  2.106076127185E+00
  2.292217312937E+00  2.493579879144E+00  2.711222600303E+00  2.946249810010E+00
  3.199808740462E+00  3.473085862123E+00  3.767302075801E+00  4.083706597614E+00
  4.423569366193E+00  4.788171791584E+00  5.178795657135E+00  5.596709979961E+00
  6.043155633203E+00  6.519327535221E+00  7.026354218150E+00  7.565274602313E+00
  8.137011825068E+00  8.742344004540E+00  9.381871861859E+00  1.005598318189E+01
  1.076481416381E+01  1.150820780086E+01  1.228566953546E+01  1.309632056186E+01
  1.393884929645E+01  1.481146170451E+01  1.571183136236E+01  1.617154045365E+01
  1.663705034444E+01  1.710789897336E+01  1.758358225232E+01  1.806355282796E+01
  1.854721894388E+01  1.903394342045E+01  1.952304276942E+01  2.001378646194E+01
  2.050539636902E+01  2.099704639453E+01  2.148786232134E+01  2.197692189185E+01
  2.246325514458E+01  2.294584502875E+01  2.342362831903E+01  2.389549685229E+01
  2.436029910817E+01  2.481684215463E+01  2.526389397862E+01  2.570018622128E+01
  2.612441733509E+01  2.653525617919E+01  2.693134606629E+01  2.731130927243E+01
  2.767375201752E+01  2.801726992149E+01  2.834045393645E+01  2.864189675146E+01
  2.892019966114E+01  2.917397988450E+01  2.940187831421E+01  2.960256767076E+01
  2.977476102897E+01  2.991722067771E+01  3.002876726625E+01  3.010828918325E+01
  3.015475210673E+01  3.016720865559E+01  3.014480806565E+01  3.008680580552E+01
  2.999257304034E+01  2.986160584476E+01  2.969353405996E+01  2.948812968427E+01
  2.924531468219E+01  2.896516809334E+01  2.864793232037E+01  2.829401847466E+01
  2.790401065922E+01  2.747866907132E+01  2.701893181236E+01  2.652591529918E+01
  2.600091318093E+01  2.544539367681E+01  2.486099526474E+01  2.424952066706E+01
  2.361292909884E+01  2.295332676557E+01  2.227295562019E+01  2.157418041517E+01
  2.085947411183E+01  2.013140173765E+01  1.939260281068E+01  1.864577247992E+01
  1.789364155857E+01  1.713895565554E+01  1.638445363621E+01  1.563284566722E+01
  1.488679112089E+01  1.414887663094E+01  1.342159460393E+01  1.270732249687E+01
  1.200830317292E+01  1.132662664143E+01  1.066421347627E+01  1.002280018766E+01
  9.403926796520E+00  8.808926827637E+00  8.238919898980E+00  7.694807039660E+00
  7.177268819348E+00  6.686766318541E+00  6.223544913059E+00  5.787640789083E+00
  5.378890048452E+00  4.996940209518E+00  4.641263858309E+00  4.311174159707E+00
  4.005841900450E+00  3.724313706320E+00  3.465531056109E+00  3.228349705679E+00
  3.011559137092E+00  2.813901660544E+00  2.634090820250E+00  2.470828788719E+00
  2.322822475861E+00  2.188798128347E+00  2.067514248855E+00  1.957772721878E+00
  1.858428090551E+00  1.768394984995E+00  1.686653754774E+00  1.612254404208E+00
  1.544318967768E+00  1.482042492298E+00  1.424692812590E+00  1.371609316663E+00
  1.322200897158E+00  1.275943276491E+00  1.232375876989E+00  1.191098384820E+00
  1.151767130097E+00  1.114091377051E+00  1.077829589751E+00  1.042785712457E+00
  1.008805329660E+00  9.757712199240E-01  9.435985678148E-01  9.122282394324E-01
  8.816140673214E-01  8.517197010398E-01  8.225249539833E-01  7.940110315342E-01
  7.661612403112E-01  7.389615030337E-01  7.123995944563E-01  6.864649743490E-01
  6.611485458674E-01  6.364424389113E-01  6.123398097796E-01  5.888346566132E-01
  5.659216502024E-01  5.435959796835E-01  5.218532126145E-01  5.006891688907E-01
  4.800998079330E-01  4.600811285613E-01  4.406290809459E-01  4.217394900155E-01
  4.034079896950E-01  3.856299673021E-01  3.684005175269E-01  3.517144052805E-01
  3.355660368113E-01  3.199494384525E-01  3.048582423447E-01  2.902856785890E-01
  2.762245731686E-01  2.626673510895E-01  2.496060441764E-01  2.370323029834E-01
  2.249374123027E-01  2.133123097809E-01  2.021476071736E-01  1.914336137984E-01
  1.811603617724E-01  1.713176326455E-01  1.618949850711E-01  1.528817831808E-01
  1.442672253579E-01  1.360403731319E-01  1.281901799412E-01  1.207055195391E-01
  1.135752138406E-01  1.067880600359E-01  1.003328568146E-01  9.419842957316E-02
  8.837365449742E-02  8.284748142455E-02  7.760895542304E-02  7.264723703543E-02
  6.795162114950E-02  6.351155447842E-02  5.931665164446E-02  5.535670987307E-02
  5.162172231551E-02  4.810189002775E-02  4.478763264119E-02  4.166959776785E-02
  3.873866918727E-02  3.598597386652E-02  3.340288786681E-02  3.098104119170E-02
  2.871232163173E-02  2.658887765977E-02  2.460312042981E-02  2.274772493000E-02
  2.101563033848E-02  1.940003962803E-02  1.789441846353E-02  1.649249343367E-02
  1.518824965700E-02  1.397592780064E-02  1.285002054913E-02  1.180526856027E-02
  1.083665594469E-02  9.939405305818E-03  9.108972377508E-03  8.341040296949E-03
  7.631513551035E-03  6.976511634945E-03  6.372362461990E-03  5.815595563945E-03
  5.302935121016E-03  4.831292860125E-03  4.397760859509E-03  3.999604296520E-03
  3.634254174155E-03  3.299300060142E-03  2.992482870464E-03  2.711687727012E-03
  2.454936916709E-03  2.220382976934E-03  2.006301929470E-03  1.811086682582E-03
  1.633240618139E-03  1.471371378091E-03  1.324184862057E-03  1.190479445270E-03
  1.069140423819E-03  9.591346918655E-04  8.595056534885E-04  7.693683698810E-04
  6.879049409295E-04  6.143601186580E-04  5.480371486744E-04  4.882938345940E-04
  4.345388194372E-04  3.862280771978E-04  3.428616071516E-04  3.039803230029E-04
  2.691631286508E-04  2.380241721675E-04  2.102102695177E-04  1.853984895821E-04
  1.632938921764E-04  1.436274109489E-04  1.261538732949E-04  1.106501497158E-04
  9.691342537585E-05  8.475958694381E-05  7.402171815135E-05  6.454869784671E-05
  5.620389465472E-05  4.886395266537E-05  4.241766289679E-05  3.676491556184E-05
  3.181572841534E-05  2.748934672212E-05  2.371341062053E-05  2.042318585684E-05
  1.756085406360E-05  1.507485893837E-05  1.291930484791E-05  1.105340454131E-05
  9.440972805615E-06  8.049963040168E-06  6.852043862746E-06  5.822212992856E-06
  4.938445785786E-06  4.181375916435E-06  3.534005834629E-06  2.981444734164E-06
  2.510671896252E-06  2.110323384504E-06  1.770500182908E-06  1.482595980462E-06
  1.239142915805E-06  1.033673702331E-06  8.605986584041E-07  7.150962683545E-07
  5.930159975245E-07  4.907921785912E-07  4.053678765100E-07  3.341277255023E-07
  2.748388134354E-07  2.255987666053E-07  1.847902612753E-07  1.510412573210E-07
  1.231903139963E-07  1.002564082165E-07  8.141273192525E-08  6.596399717213E-08
  5.332682561657E-08  4.301284342185E-08  3.461414308584E-08  2.779081084205E-08
  2.226025204201E-08  1.778807759023E-08  1.418034223857E-08  1.127695055590E-08
  8.946068863291E-09  7.079401557224E-09  5.588208218155E-09  4.399953899616E-09
  3.455499185088E-09  2.706749150442E-09  2.114691433215E-09  1.647763331887E-09
  1.280496374340E-09  9.923942309998E-10  7.670063211613E-10  5.911650779128E-10
  4.543596956390E-10  3.482233736137E-10  2.661146703361E-10  2.027766689221E-10
  1.540602894404E-10  1.167003280773E-10  8.813470751352E-11  6.635903407990E-11
  4.980991591963E-11  3.727163838701E-11  2.780174968606E-11  2.067190871273E-11
  1.532101204503E-11  1.131816865543E-11  8.333546992012E-12  6.115494872528E-12
  4.472641236555E-12  3.259941354434E-12  2.367833063053E-12  1.713838995406E-12
  1.236085339646E-12  8.883170666623E-13  6.360775374672E-13  4.537908855124E-13
  3.225418353457E-13  2.283923701622E-13  1.611101211821E-13  1.132113446682E-13
  7.924336650209E-14  5.524862014827E-14  3.836586197879E-14  2.653460910615E-14
  1.827694427923E-14  1.253707799881E-14  8.563856058808E-15  5.825065923297E-15
  3.945196956302E-15  2.660421992409E-15  1.786173858039E-15  1.193892922265E-15
  7.944238722299E-16  5.262122840613E-16  3.469506501365E-16  2.276923307169E-16
  1.487231989187E-16  9.667940876472E-17  6.254451281493E-17  4.026419913086E-17
  2.579276054315E-17  1.643990715673E-17  1.042550343129E-17  6.577541628414E-18
  4.128297945231E-18  2.577449781887E-18  1.340599574247E-18  0.000000000000E+00
  0.000000000000E+00  0.000000000000E+00  0.000000000000E+00  0.000000000000E+00
  0.000000000000E+00  0.000000000000E+00  0.000000000000E+00  0.000000000000E+00
  0.000000000000E+00  0.000000000000E+00  0.000000000000E+00  0.000000000000E+00
  0.000000000000E+00  0.000000000000E+00  0.000000000000E+00  0.000000000000E+00
  0.000000000000E+00  0.000000000000E+00  0.000000000000E+00  0.000000000000E+00
  0.000000000000E+00  0.000000000000E+00  0.000000000000E+00  0.000000000000E+00
  0.000000000000E+00  0.000000000000E+00  0.000000000000E+00  0.000000000000E+00
  0.000000000000E+00
</data>
</radfunc>
</valence-charge>
<pseudocore-charge matching-radius="0.648386916501"
 number-of-continuous-derivatives="4">
<annotation model-charge-form="Teter function with specified parameters" />
<radfunc>
<data npts="290">
  1.539831503202E+02  1.539680885977E+02  1.539230669026E+02  1.538479647779E+02
  1.537435668540E+02  1.536063295892E+02  1.534314798824E+02  1.532313408067E+02
  1.530064064934E+02  1.527442320747E+02  1.524488903604E+02  1.521280831357E+02
  1.517406599959E+02  1.513363765409E+02  1.508599130879E+02  1.503845638293E+02
  1.498378037223E+02  1.493201447298E+02  1.487389088616E+02  1.480865732510E+02
  1.473548015076E+02  1.467060275987E+02  1.459953814072E+02  1.452173013813E+02
  1.443657971529E+02  1.434344318463E+02  1.424163073860E+02  1.415913628473E+02
  1.407101953847E+02  1.397693690198E+02  1.387652986935E+02  1.376942538056E+02
  1.365523638820E+02  1.353356267288E+02  1.340399194733E+02  1.326610129325E+02
  1.311945897927E+02  1.296362671217E+02  1.285441473855E+02  1.274079057768E+02
  1.262262333150E+02  1.249978304115E+02  1.237214130454E+02  1.223957195906E+02
  1.210195183320E+02  1.195916157063E+02  1.181108653044E+02  1.165761776662E+02
  1.149865308984E+02  1.133409821393E+02  1.116386798904E+02  1.098788772258E+02
  1.080609458850E+02  1.061843912404E+02  1.042488681224E+02  1.022541974684E+02
  1.002003837474E+02  9.808763309037E+01  9.591637203925E+01  9.368726679977E+01
  9.140124285813E+01  8.905950479210E+01  8.666355607406E+01  8.421521862914E+01
  8.171665187352E+01  7.917037091876E+01  7.657926358637E+01  7.526790822166E+01
  7.394660583471E+01  7.261582876635E+01  7.127607515749E+01  6.992786922256E+01
  6.857176147136E+01  6.720832887486E+01  6.583817497050E+01  6.446192990213E+01
  6.308025039002E+01  6.169381962604E+01  6.030334708907E+01  5.890956827585E+01
  5.751324434216E+01  5.611516164968E+01  5.471613121348E+01  5.331698804551E+01
  5.191859038940E+01  5.052181884225E+01  4.912757535899E+01  4.773678213558E+01
  4.635038036714E+01  4.496932887802E+01  4.359460262066E+01  4.222719104118E+01
  4.086809630957E+01  3.951833141361E+01  3.817891811574E+01  3.685088477326E+01
  3.553526402289E+01  3.423309033163E+01  3.294539741689E+01  3.167321553973E+01
  3.041756867642E+01  2.917947157437E+01  2.795992670004E+01  2.675992108744E+01
  2.558042309731E+01  2.442237909851E+01  2.328671008437E+01  2.217430823836E+01
  2.108603346483E+01  2.002270990197E+01  1.898512243574E+01  1.797401323465E+01
  1.699007832692E+01  1.603396424261E+01  1.510626474466E+01  1.420751767364E+01
  1.333820193230E+01  1.249873463634E+01  1.168946845883E+01  1.091068919578E+01
  1.016261358054E+01  9.445387374820E+00  8.759083763152E+00  8.103702077511E+00
  7.479166877103E+00  6.885327407263E+00  6.321957459369E+00  5.788755651465E+00
  5.285346146647E+00  4.811279823189E+00  4.366035906894E+00  3.949024072299E+00
  3.559587015115E+00  3.197003493594E+00  2.860491831668E+00  2.549213871370E+00
  2.262279356643E+00  1.998750724983E+00  1.757648277611E+00  1.537955693126E+00
  1.338625843916E+00  1.158586869058E+00  9.967484522372E-01  8.520082483732E-01
  7.232583982816E-01  6.093920670357E-01  5.093099387079E-01  4.219265980915E-01
  3.461767288771E-01  2.810210577082E-01  2.254519746429E-01  1.784987628767E-01
  1.392323741816E-01  1.067696914036E-01  8.027722554114E-02  5.897420235073E-02
  4.213500202755E-02  2.909092518087E-02  1.923126891831E-02  1.200370819220E-02
  6.913989426684E-03  3.524955588073E-03  1.454934004772E-03  3.755300876512E-04
  8.881330704635E-06  1.244362629746E-04  5.353320566303E-04  1.094451967920E-03
  1.690249418772E-03  2.242429077193E-03  2.697576575320E-03  3.024827388768E-03
  3.211661836594E-03  3.259907176321E-03  3.182019479301E-03  2.997707585085E-03
  2.730949245845E-03  2.407435964268E-03  2.052468456667E-03  1.689309653758E-03
  1.337987243425E-03  1.014523540622E-03  7.305575110175E-04  4.933126138338E-04
  3.058552391842E-04  1.675822778907E-04  7.487304204457E-05  2.184047898228E-05
  1.119363263843E-06  4.634724091382E-06  2.430182528229E-05  5.261907237405E-05
  8.312666577617E-05  1.107159502499E-04  1.317864821149E-04  1.442590996285E-04
  1.474630438064E-04  1.419228440511E-04  1.290758119523E-04  1.109533212444E-04
  8.985854813737E-05  6.807018160163E-05  4.759617768761E-05  2.999449992341E-05
  1.626967165831E-05  6.845654847831E-06  1.607856696096E-06  6.727699915896E-10
  1.162480611147E-06  4.077774375904E-06  7.726304562204E-06  1.121151983831E-05
  1.385491178406E-05  1.524844073706E-05  1.526333507557E-05  1.401941985603E-05
  1.182400494410E-05  9.092653752113E-06  6.265493005377E-06  3.732020950742E-06
  1.774827844512E-06  5.387249359818E-07  2.714934792545E-08  0.000000000000E+00
  0.000000000000E+00  0.000000000000E+00  0.000000000000E+00  0.000000000000E+00
  0.000000000000E+00  0.000000000000E+00  0.000000000000E+00  0.000000000000E+00
  0.000000000000E+00  0.000000000000E+00  0.000000000000E+00  0.000000000000E+00
  0.000000000000E+00  0.000000000000E+00  0.000000000000E+00  0.000000000000E+00
  0.000000000000E+00  0.000000000000E+00  0.000000000000E+00  0.000000000000E+00
  0.000000000000E+00  0.000000000000E+00  0.000000000000E+00  0.000000000000E+00
  0.000000000000E+00  0.000000000000E+00  0.000000000000E+00  0.000000000000E+00
  0.000000000000E+00  0.000000000000E+00  0.000000000000E+00  0.000000000000E+00
  0.000000000000E+00  0.000000000000E+00  0.000000000000E+00  0.000000000000E+00
  0.000000000000E+00  0.000000000000E+00  0.000000000000E+00  0.000000000000E+00
  0.000000000000E+00  0.000000000000E+00  0.000000000000E+00  0.000000000000E+00
  0.000000000000E+00  0.000000000000E+00  0.000000000000E+00  0.000000000000E+00
  0.000000000000E+00  0.000000000000E+00  0.000000000000E+00  0.000000000000E+00
  0.000000000000E+00  0.000000000000E+00  0.000000000000E+00  0.000000000000E+00
  0.000000000000E+00  0.000000000000E+00  0.000000000000E+00  0.000000000000E+00
  0.000000000000E+00  0.000000000000E+00  0.000000000000E+00  0.000000000000E+00
  0.000000000000E+00  0.000000000000E+00
</data>
</radfunc>
</pseudocore-charge>
<semilocal-potentials set="lj">
<slps n="4" l="s" j="0.5" rc="1.76602681347" eref="-0.532855204821">
<radfunc>
<data npts="290">
  9.587693858567E+01  9.576867886369E+01  9.544622989676E+01  9.491217965929E+01
  9.417767219662E+01  9.322577796395E+01  9.203493360846E+01  9.070113305488E+01
  8.923812608156E+01  8.757919409765E+01  8.576751508990E+01  8.386495195735E+01
  8.165319520947E+01  7.943959773251E+01  7.694665125386E+01  7.457610530730E+01
  7.198306874190E+01  6.965030357993E+01  6.716212605707E+01  6.452193457081E+01
  6.173584355585E+01  5.940786723114E+01  5.699817521612E+01  5.451392502654E+01
  5.196342462165E+01  4.935605207345E+01  4.670214074722E+01  4.468784284369E+01
  4.265856344864E+01  4.061939890053E+01  3.857554932978E+01  3.653226650364E+01
  3.449480061187E+01  3.246834715189E+01  3.045799506968E+01  2.846867726946E+01
  2.650512452062E+01  2.457182367213E+01  2.330185271902E+01  2.204837333521E+01
  2.081249083590E+01  1.959524254872E+01  1.839759549411E+01  1.722044462526E+01
  1.606461162212E+01  1.493084422761E+01  1.381981610853E+01  1.273212721866E+01
  1.166830463712E+01  1.062880385133E+01  9.614010450995E+00  8.624242196940E+00
  7.659751427210E+00  6.720727761687E+00  5.807301066012E+00  4.919544635794E+00
  4.057478562613E+00  3.221073244468E+00  2.410253004722E+00  1.624899785401E+00
  8.648568828007E-01  1.299326956138E-01 -5.800955417481E-01 -1.265478065441E+00
 -1.926488950385E+00 -2.563422560282E+00 -3.176590097186E+00 -3.474362619836E+00
 -3.766316266592E+00 -4.052493209743E+00 -4.332936072733E+00 -4.607687838122E+00
 -4.876791758152E+00 -5.140291268010E+00 -5.398229901930E+00 -5.650651212312E+00
 -5.897598691961E+00 -6.139115699640E+00 -6.375245389137E+00 -6.606030642028E+00
 -6.831514004382E+00 -7.051737627654E+00 -7.266743214037E+00 -7.476571966581E+00
 -7.681264544391E+00 -7.880861023269E+00 -8.075400862168E+00 -8.264922875838E+00
 -8.449465214110E+00 -8.629065348205E+00 -8.803760064526E+00 -8.973585466350E+00
 -9.138576983834E+00 -9.298769392719E+00 -9.454196842078E+00 -9.604892891376E+00
 -9.750890557054E+00 -9.892222368707E+00 -1.002892043483E+01 -1.016101651793E+01
 -1.028854211866E+01 -1.041152856836E+01 -1.053000712933E+01 -1.064400910171E+01
 -1.075356593587E+01 -1.085870934882E+01 -1.095947144303E+01 -1.105588482587E+01
 -1.114798272773E+01 -1.123579911684E+01 -1.131936880880E+01 -1.139872756877E+01
 -1.147391220460E+01 -1.154496064916E+01 -1.161191203046E+01 -1.167480672848E+01
 -1.173368641781E+01 -1.178859409575E+01 -1.183957409551E+01 -1.188667208468E+01
 -1.192993504920E+01 -1.196941126301E+01 -1.200515024374E+01 -1.203720269424E+01
 -1.206562042971E+01 -1.209045628933E+01 -1.211176403065E+01 -1.212959820416E+01
 -1.214401400416E+01 -1.215506709125E+01 -1.216281338051E+01 -1.216730878829E+01
 -1.216860893019E+01 -1.216676876267E+01 -1.216184216153E+01 -1.215388143292E+01
 -1.214293675703E+01 -1.212905557106E+01 -1.211228190843E+01 -1.209265572441E+01
 -1.207021225495E+01 -1.204498147517E+01 -1.201698774353E+01 -1.198624973550E+01
 -1.195278078140E+01 -1.191658972152E+01 -1.187768237274E+01 -1.183606365864E+01
 -1.179174038884E+01 -1.174472458177E+01 -1.169503711612E+01 -1.164271137724E+01
 -1.158779644953E+01 -1.153035930833E+01 -1.147048540103E+01 -1.140827699626E+01