<?xml version="1.0" encoding="UTF-8" ?>
<psml version="1.1" energy_unit="hartree" length_unit="bohr"
 uuid="e1e76070-53a0-11e8-793b-a838dfd985ff"
 xmlns="http://esl.cecam.org/PSML/ns/1.1">
<provenance creator="ONCVPSP-3.3.0+psml-3.3.0-73 (fully-relativistic)"
 date="2018-05-09">
<annotation action="semilocal-pseudopotential-generation"
 action-cont="projectors-generation" />
<input-file name="oncvpsp-input">
<![CDATA[# atsym z nc nv iexc psfile
As 33 3 5 -116133 upf
# n l f
1 0 2.0
2 0 2.0
2 1 6.0
3 0 2.0
3 1 6.0
3 2 10.0
4 0 2.0
4 1 3.0
# lmax
2
# l rc ep ncon nbas qcut
0 1.2 0.0 4 7 9.6
1 1.4 0.0 4 7 10.0
2 1.6 0.0 4 7 10.0
# lloc lpopt rc5 dvloc0
4 5 1.2 0.0
# l nproj debl
0 2 1.0
1 2 1.0
2 2 3.5
# icmod fcfact rcfact
3 2.7 1.5
# epsh1 epsh2 depsh
-12.0 12.0 0.02
# rlmax drl
6.0 0.01
 0
]]>
</input-file>
</provenance>
<pseudo-atom-spec atomic-label="As" atomic-number="33" z-pseudo="23"
 flavor="Hamann&apos;s oncvpsp" relativity="dirac" spin-dft="no"
 core-corrections="yes">
<annotation pseudo-energy="-302.339125181" />
<exchange-correlation>
<annotation oncvpsp-xc-code="-116133" oncvpsp-xc-type="libxc-interface" />
<libxc-info number-of-functionals="2">
<functional name="Perdew, Burke &amp; Ernzerhof SOL (GGA)" type="exchange"
 id="116" />
<functional name="Perdew, Burke &amp; Ernzerhof SOL (GGA)" type="correlation"
 id="133" />
</libxc-info>
</exchange-correlation>
<valence-configuration total-valence-charge="23">
<shell n="3" l="s" occupation="2" />
<shell n="3" l="p" occupation="6" />
<shell n="3" l="d" occupation="10" />
<shell n="4" l="s" occupation="2" />
<shell n="4" l="p" occupation="3" />
</valence-configuration>
</pseudo-atom-spec>
<grid npts="457">
<annotation type="sampled from oncvpsp log grid"
 recipe="r(i:1..N) = r1*exp(a*(i-1)) + r=0; resampled"
 recipe-cont="r1: scale; a: step" scale="0.151515151515E-04"
 step="0.119285708653E-01" delta="0.500000000000E-02" rmax="44.2319075471" />
<grid-data>
  0.000000000000E+00  5.050863755537E-03  1.008870397413E-02  1.513466471039E-02
  2.015139445527E-02  2.527754206661E-02  3.059306869357E-02  3.572479163279E-02
  4.073383894775E-02  4.589448142461E-02  5.109578544660E-02  5.621201837620E-02
  6.184054090387E-02  6.722593745724E-02  7.308032240581E-02  7.850250761159E-02
  8.432699115759E-02  8.950950742873E-02  9.501052759205E-02  1.008496260636E-01
  1.070475802516E-01  1.122790953457E-01  1.177662794620E-01  1.235216273841E-01
  1.295582445274E-01  1.358898767811E-01  1.425309418088E-01  1.477238753743E-01
  1.531060068687E-01  1.586842294782E-01  1.644656875329E-01  1.704577856578E-01
  1.766681982559E-01  1.831048793374E-01  1.897760727067E-01  1.966903225206E-01
  2.038564842315E-01  2.112837359290E-01  2.163849704493E-01  2.216093691758E-01
  2.269599057852E-01  2.324396257505E-01  2.380516480746E-01  2.437991670657E-01
  2.496854541554E-01  2.557138597605E-01  2.618878151905E-01  2.682108346005E-01
  2.746865169911E-01  2.813185482573E-01  2.881107032865E-01  2.950668481066E-01
  3.021909420873E-01  3.094870401931E-01  3.169592952915E-01  3.246119605170E-01
  3.324493916917E-01  3.404760498047E-01  3.486965035512E-01  3.571154319329E-01
  3.657376269215E-01  3.745679961859E-01  3.836115658858E-01  3.928734835326E-01
  4.023590209190E-01  4.120735771201E-01  4.220226815661E-01  4.270869537448E-01
  4.322119971898E-01  4.373985411561E-01  4.426473236499E-01  4.479590915337E-01
  4.533346006321E-01  4.587746158397E-01  4.642799112298E-01  4.698512701646E-01
  4.754894854065E-01  4.811953592314E-01  4.869697035422E-01  4.928133399847E-01
  4.987271000645E-01  5.047118252653E-01  5.107683671685E-01  5.168975875745E-01
  5.231003586254E-01  5.293775629289E-01  5.357300936840E-01  5.421588548082E-01
  5.486647610659E-01  5.552487381987E-01  5.619117230571E-01  5.686546637338E-01
  5.754785196986E-01  5.823842619350E-01  5.893728730782E-01  5.964453475551E-01
  6.036026917258E-01  6.108459240265E-01  6.181760751148E-01  6.255941880162E-01
  6.331013182724E-01  6.406985340917E-01  6.483869165008E-01  6.561675594988E-01
  6.640415702128E-01  6.720100690553E-01  6.800741898840E-01  6.882350801626E-01
  6.964939011246E-01  7.048518279380E-01  7.133100498733E-01  7.218697704718E-01
  7.305322077174E-01  7.392985942101E-01  7.481701773406E-01  7.571482194687E-01
  7.662339981023E-01  7.754288060795E-01  7.847339517525E-01  7.941507591735E-01
  8.036805682836E-01  8.133247351030E-01  8.230846319242E-01  8.329616475073E-01
  8.429571872774E-01  8.530726735247E-01  8.633095456070E-01  8.736692601543E-01
  8.841532912762E-01  8.947631307715E-01  9.055002883407E-01  9.163662918008E-01
  9.273626873024E-01  9.384910395501E-01  9.497529320247E-01  9.611499672090E-01
  9.726837668155E-01  9.843559720172E-01  9.961682436815E-01  1.008122262606E+00
  1.020219729757E+00  1.032462366514E+00  1.044851914912E+00  1.057390137891E+00
  1.070078819546E+00  1.082919765380E+00  1.095914802565E+00  1.109065780196E+00
  1.122374569558E+00  1.135843064393E+00  1.149473181165E+00  1.163266859339E+00
  1.177226061651E+00  1.191352774391E+00  1.205649007684E+00  1.220116795776E+00
  1.234758197326E+00  1.249575295693E+00  1.264570199242E+00  1.279745041633E+00
  1.295101982132E+00  1.310643205918E+00  1.326370924389E+00  1.342287375482E+00
  1.358394823987E+00  1.374695561875E+00  1.391191908618E+00  1.407886211521E+00
  1.424780846059E+00  1.441878216212E+00  1.459180754807E+00  1.476690923864E+00
  1.494411214951E+00  1.512344149530E+00  1.530492279324E+00  1.548858186676E+00
  1.567444484916E+00  1.586253818735E+00  1.605288864560E+00  1.624552330935E+00
  1.644046958906E+00  1.663775522413E+00  1.683740828682E+00  1.703945718626E+00
  1.724393067250E+00  1.745085784057E+00  1.766026813465E+00  1.787219135227E+00
  1.808665764850E+00  1.830369754028E+00  1.852334191076E+00  1.874562201369E+00
  1.897056947786E+00  1.919821631159E+00  1.942859490733E+00  1.966173804622E+00
  1.989767890277E+00  2.013645104960E+00  2.037808846220E+00  2.062262552375E+00
  2.087009703003E+00  2.112053819439E+00  2.137398465272E+00  2.163047246856E+00
  2.189003813818E+00  2.215271859584E+00  2.241855121899E+00  2.268757383362E+00
  2.295982471962E+00  2.323534261625E+00  2.351416672765E+00  2.379633672838E+00
  2.408189276912E+00  2.437087548235E+00  2.466332598814E+00  2.495928590000E+00
  2.525879733080E+00  2.556190289877E+00  2.586864573355E+00  2.617906948235E+00
  2.649321831614E+00  2.681113693594E+00  2.713287057917E+00  2.745846502612E+00
  2.778796660643E+00  2.812142220571E+00  2.845887927218E+00  2.880038582344E+00
  2.914599045332E+00  2.949574233876E+00  2.984969124683E+00  3.020788754179E+00
  3.057038219229E+00  3.093722677860E+00  3.130847349994E+00  3.168417518194E+00
  3.206438528413E+00  3.244915790754E+00  3.283854780243E+00  3.323261037606E+00
  3.363140170057E+00  3.403497852097E+00  3.444339826323E+00  3.485671904239E+00
  3.527499967089E+00  3.569829966694E+00  3.612667926295E+00  3.656019941410E+00
  3.699892180707E+00  3.744290886876E+00  3.789222377518E+00  3.834693046048E+00
  3.880709362601E+00  3.927277874952E+00  3.974405209452E+00  4.022098071965E+00
  4.070363248829E+00  4.119207607815E+00  4.168638099108E+00  4.218661756298E+00
  4.269285697373E+00  4.320517125742E+00  4.372363331251E+00  4.424831691226E+00
  4.477929671520E+00  4.531664827579E+00  4.586044805510E+00  4.641077343176E+00
  4.696770271294E+00  4.753131514549E+00  4.810169092724E+00  4.867891121837E+00
  4.926305815299E+00  4.985421485082E+00  5.045246542903E+00  5.105789501418E+00
  5.167058975435E+00  5.229063683140E+00  5.291812447338E+00  5.355314196706E+00
  5.419577967067E+00  5.484612902671E+00  5.550428257503E+00  5.617033396593E+00
  5.684437797353E+00  5.752651050921E+00  5.821682863532E+00  5.891543057894E+00
  5.962241574589E+00  6.033788473484E+00  6.106193935166E+00  6.179468262388E+00
  6.253621881536E+00  6.328665344115E+00  6.404609328244E+00  6.481464640183E+00
  6.559242215865E+00  6.637953122456E+00  6.717608559925E+00  6.798219862644E+00
  6.879798500996E+00  6.962356083008E+00  7.045904356004E+00  7.130455208276E+00
  7.216020670775E+00  7.302612918825E+00  7.390244273851E+00  7.478927205137E+00
  7.568674331599E+00  7.659498423578E+00  7.751412404661E+00  7.844429353517E+00
  7.938562505759E+00  8.033825255828E+00  8.130231158898E+00  8.227793932805E+00
  8.326527459998E+00  8.426445789518E+00  8.527563138992E+00  8.629893896660E+00
  8.733452623420E+00  8.838254054901E+00  8.944313103560E+00  9.051644860803E+00
  9.160264599132E+00  9.270187774322E+00  9.381430027614E+00  9.494007187945E+00
  9.607935274201E+00  9.723230497491E+00  9.839909263461E+00  9.957988174622E+00
  1.007748403272E+01  1.019841384111E+01  1.032079480720E+01  1.044464434489E+01
  1.056998007703E+01  1.069681983795E+01  1.082518167601E+01  1.095508385612E+01
  1.108654486239E+01  1.121958340074E+01  1.135421840155E+01  1.149046902237E+01
  1.162835465064E+01  1.176789490645E+01  1.190910964532E+01  1.205201896107E+01
  1.219664318860E+01  1.234300290686E+01  1.249111894175E+01  1.264101236905E+01
  1.279270451748E+01  1.294621697169E+01  1.310157157535E+01  1.325879043425E+01
  1.341789591946E+01  1.357891067049E+01  1.374185759854E+01  1.390675988972E+01
  1.407364100840E+01  1.424252470050E+01  1.441343499691E+01  1.458639621687E+01
  1.476143297147E+01  1.493857016713E+01  1.511783300913E+01  1.529924700524E+01
  1.548283796931E+01  1.566863202494E+01  1.585665560924E+01  1.604693547655E+01
  1.623949870227E+01  1.643437268670E+01  1.663158515894E+01  1.683116418084E+01
  1.703313815101E+01  1.723753580883E+01  1.744438623853E+01  1.765371887339E+01
  1.786556349987E+01  1.807995026187E+01  1.829690966501E+01  1.851647258100E+01
  1.873867025197E+01  1.896353429499E+01  1.919109670653E+01  1.942138986701E+01
  1.965444654541E+01  1.989029990396E+01  2.012898350281E+01  2.037053130484E+01
  2.061497768050E+01  2.086235741266E+01  2.111270570162E+01  2.136605817003E+01
  2.162245086807E+01  2.188192027849E+01  2.214450332183E+01  2.241023736170E+01
  2.267916021004E+01  2.295131013256E+01  2.322672585415E+01  2.350544656440E+01
  2.378751192317E+01  2.407296206625E+01  2.436183761104E+01  2.465417966238E+01
  2.495002981832E+01  2.524943017614E+01  2.555242333826E+01  2.585905241832E+01
  2.616936104734E+01  2.648339337990E+01  2.680119410046E+01  2.712280842967E+01
  2.744828213082E+01  2.777766151639E+01  2.811099345459E+01  2.844832537605E+01
  2.878970528056E+01  2.913518174393E+01  2.948480392485E+01  2.983862157195E+01
  3.019668503081E+01  3.055904525118E+01  3.092575379420E+01  3.129686283973E+01
  3.167242519381E+01  3.205249429613E+01  3.243712422768E+01  3.282636971842E+01
  3.322028615504E+01  3.361892958890E+01  3.402235674397E+01  3.443062502489E+01
  3.484379252519E+01  3.526191803549E+01  3.568506105192E+01  3.611328178454E+01
  3.654664116596E+01  3.698520085995E+01  3.742902327027E+01  3.787817154951E+01
  3.833270960811E+01  3.879270212340E+01  3.925821454888E+01  3.972931312347E+01
  4.020606488095E+01  4.068853765952E+01  4.117680011144E+01  4.167092171277E+01
  4.217097277333E+01  4.267702444661E+01  4.318914873997E+01  4.370741852485E+01
  4.423190754715E+01
</grid-data>
</grid>
<valence-charge total-charge="23" is-unscreening-charge="yes"
 rescaled-to-z-pseudo="no">
<radfunc>
<data npts="457">
  4.179977299675E+01  4.181310793588E+01  4.185296214212E+01  4.191942510022E+01
  4.201177418122E+01  4.213310209625E+01  4.228756594667E+01  4.246421016691E+01
  4.266253346736E+01  4.289341544097E+01  4.315314840177E+01  4.343484454430E+01
  4.377443104616E+01  4.412808561451E+01  4.454394092910E+01  4.495780025338E+01
  4.543255497613E+01  4.588076710654E+01  4.638253282036E+01  4.694377128380E+01
  4.757092074858E+01  4.812475734334E+01  4.872902516320E+01  4.938772797427E+01
  5.010505456719E+01  5.088535346930E+01  5.173309653346E+01  5.241589717793E+01
  5.314111492335E+01  5.391065541487E+01  5.472638222328E+01  5.559008763536E+01
  5.650345786875E+01  5.746803194287E+01  5.848515337209E+01  5.955591378759E+01
  6.068108754595E+01  6.186105635079E+01  6.267811846005E+01  6.351933558538E+01
  6.438441266930E+01  6.527291104814E+01  6.618423175552E+01  6.711759759452E+01
  6.807203396541E+01  6.904634845339E+01  7.003910920105E+01  7.104862211671E+01
  7.207290700026E+01  7.310967270527E+01  7.415629149994E+01  7.520977283984E+01
  7.626673682489E+01  7.732338767971E+01  7.837548767330E+01  7.941833197939E+01
  8.044672507334E+01  8.145495936587E+01  8.243679688541E+01  8.338545494047E+01
  8.429359681724E+01  8.515332869444E+01  8.595620408257E+01  8.669323721367E+01
  8.735492691417E+01  8.793129258047E+01  8.841192393420E+01  8.861298425101E+01
  8.878604625229E+01  8.892971966192E+01  8.904260273315E+01  8.912328586788E+01
  8.917035555996E+01  8.918239867056E+01  8.915800704226E+01  8.909578245681E+01
  8.899434193939E+01  8.885232341006E+01  8.866839168033E+01  8.844124479015E+01
  8.816962067736E+01  8.785230416817E+01  8.748813427346E+01  8.707601177177E+01
  8.661490705531E+01  8.610386821073E+01  8.554202930157E+01  8.492861881394E+01
  8.426296822194E+01  8.354452062341E+01  8.277283939116E+01  8.194761677916E+01
  8.106868241719E+01  8.013601162203E+01  7.914973344755E+01  7.811013839099E+01
  7.701768566771E+01  7.587300996223E+01  7.467692755967E+01  7.343044175833E+01
  7.213474746231E+01  7.079123485121E+01  6.940149202440E+01  6.796730651809E+01
  6.649066559631E+01  6.497375522070E+01  6.341895761030E+01  6.182884730974E+01
  6.020618569398E+01  5.855391384918E+01  5.687514378275E+01  5.517314793127E+01
  5.345134695219E+01  5.171329580498E+01  4.996266814845E+01  4.820323910369E+01
  4.643886645662E+01  4.467347039929E+01  4.291101193519E+01  4.115547010052E+01
  3.941081817965E+01  3.768099911874E+01  3.596990036627E+01  3.428132839207E+01
  3.261898315668E+01  3.098643282061E+01  2.938708899641E+01  2.782418285612E+01
  2.630074241092E+01  2.481957127885E+01  2.338322924966E+01  2.199401494243E+01
  2.065395083227E+01  1.936477089621E+01  1.812791109552E+01  1.694450287365E+01
  1.581536980392E+01  1.474102747262E+01  1.372168662924E+01  1.275725957991E+01
  1.184736974179E+01  1.099136421846E+01  1.018832919911E+01  9.437107930785E+00
  8.736320963125E+00  8.084388321898E+00  7.479553231730E+00  6.919906981376E+00
  6.403414507822E+00  5.927940268986E+00  5.491273979366E+00  5.091155798542E+00
  4.725300588708E+00  4.391420893364E+00  4.087248333890E+00  3.810553302745E+00
  3.559163056177E+00  3.330977619241E+00  3.123982319472E+00  2.936258106957E+00
  2.765989486852E+00  2.611470287543E+00  2.471107354413E+00  2.343422348184E+00
  2.227051843350E+00  2.120745941311E+00  2.023365620930E+00  1.933879048440E+00
  1.851356726155E+00  1.774964814944E+00  1.703957934606E+00  1.637674316809E+00
  1.575531618283E+00  1.517021818658E+00  1.461706251492E+00  1.409210477256E+00
  1.359219059828E+00  1.311470247130E+00  1.265750561199E+00  1.221887776020E+00
  1.179738113068E+00  1.139172222887E+00  1.100072334563E+00  1.062333193779E+00
  1.025860222589E+00  9.905687798359E-01  9.563833090271E-01  9.232365465198E-01
  8.910687750144E-01  8.598271215573E-01  8.294648988408E-01  7.999409888190E-01
  7.712192673723E-01  7.432680686892E-01  7.160596879587E-01  6.895699209127E-01
  6.637776387145E-01  6.386643966663E-01  6.142140752031E-01  5.904125515490E-01
  5.672474006408E-01  5.447076236209E-01  5.227834024602E-01  5.014658791912E-01
  4.807469582790E-01  4.606191306842E-01  4.410753182095E-01  4.221087367575E-01
  4.037127771678E-01  3.858809023445E-01  3.686065594301E-01  3.518831058269E-01
  3.357037479169E-01  3.200614913863E-01  3.049491020633E-01  2.903590763461E-01
  2.762836201943E-01  2.627146358191E-01  2.496437152167E-01  2.370621397432E-01
  2.249608849824E-01  2.133306302028E-01  2.021617717499E-01  1.914444397666E-01
  1.811685176796E-01  1.713236639333E-01  1.618993354959E-01  1.528848127047E-01
  1.442692250557E-01  1.360415775809E-01  1.281907774951E-01  1.207056608254E-01
  1.135750187734E-01  1.067876235880E-01  1.003322537581E-01  9.419771836335E-02
  8.837288044771E-02  8.284667929532E-02  7.760815152818E-02  7.264645095253E-02
  6.795086710516E-02  6.351084246806E-02  5.931598833549E-02  5.535609933186E-02
  5.162116659128E-02  4.810138962051E-02  4.478718687598E-02  4.166920509330E-02
  3.873832741318E-02  3.598568035236E-02  3.340263967084E-02  3.098083518833E-02
  2.871215460352E-02  2.658874636900E-02  2.460302167372E-02  2.274765558287E-02
  2.101558738323E-02  1.940002017935E-02  1.789441978421E-02  1.649251294552E-02
  1.518828494741E-02  1.397597662563E-02  1.285008083364E-02  1.180533839624E-02
  1.083673358734E-02  9.939489168663E-03  9.109061026253E-03  8.341132442643E-03
  7.631608042649E-03  6.976607451574E-03  6.372458704819E-03  5.815691448119E-03
  5.303029967508E-03  4.831386087695E-03  4.397851976821E-03  3.999692894483E-03
  3.634339918529E-03  3.299382684448E-03  2.992562169225E-03  2.711763549351E-03
  2.455009160308E-03  2.220451582370E-03  2.006366874932E-03  1.811147978957E-03
  1.633298304474E-03  1.471425517422E-03  1.324235537583E-03  1.190526756871E-03
  1.069184484903E-03  9.591756265242E-04  8.595435939450E-04  7.694034542201E-04
  6.879373110861E-04  6.143899186496E-04  5.480645230601E-04  4.883189271426E-04
  4.345617719883E-04  3.862490287001E-04  3.428806928616E-04  3.039976738309E-04
  2.691788706387E-04  2.380384260855E-04  2.102231505665E-04  1.854101071896E-04
  1.633043498771E-04  1.436368063351E-04  1.261622980306E-04  1.106576896044E-04
  9.692016047244E-05  8.476559170571E-05  7.402706161901E-05  6.455344384930E-05
  5.620810203452E-05  4.886767551613E-05  4.242095081151E-05  3.676781388616E-05
  3.181827850301E-05  2.749158618979E-05  2.371537359922E-05  2.042490323810E-05
  1.756235373859E-05  1.507616602845E-05  1.292044192575E-05  1.105439184158E-05
  9.441828424769E-06  8.050703124870E-06  6.852682786863E-06  5.822763522895E-06
  4.938919234922E-06  4.181782287350E-06  3.534353951466E-06  2.981742363977E-06
  2.510925860413E-06  2.110539660523E-06  1.770683997213E-06  1.482751892646E-06
  1.239274894906E-06  1.033785195670E-06  8.606926535320E-07  7.151753486360E-07
  5.930823918593E-07  4.908478057728E-07  4.054143846866E-07  3.341665271842E-07
  2.748711164669E-07  2.256256014920E-07  1.848125052315E-07  1.510596553733E-07
  1.232054974565E-07  1.002689108084E-07  8.142300382580E-08  6.597241720589E-08
  5.333371181815E-08  4.301846216091E-08  3.461871692998E-08  2.779452531438E-08
  2.226326141378E-08  1.779050983321E-08  1.418230324810E-08  1.127852774253E-08
  8.947334199382E-09  7.080414154361E-09  5.589016501881E-09  4.400597439467E-09
  3.456010230441E-09  2.707153915977E-09  2.115011171896E-09  1.648015228118E-09
  1.280694285397E-09  9.925493007845E-10  7.671274868566E-10  5.912594870351E-10
  4.544330483605E-10  3.482802029372E-10  2.661585707388E-10  2.028104824008E-10
  1.540862564468E-10  1.167202096046E-10  8.814988354971E-11  6.637058276210E-11
  4.981867697593E-11  3.727826382754E-11  2.780674417853E-11  2.067566163984E-11
  1.532382287576E-11  1.132026695970E-11  8.335108177974E-12  6.116652519612E-12
  4.473496728349E-12  3.260571377080E-12  2.368295422161E-12  1.714177112940E-12
  1.236331718160E-12  8.884959485823E-13  6.362069391500E-13  4.538841474450E-13
  3.226087992585E-13  2.284402695359E-13  1.611442524082E-13  1.132355709732E-13
  7.926049485745E-14  5.526068208508E-14  3.837432198722E-14  2.654051867935E-14
  1.828105532176E-14  1.253992597998E-14  8.565820730003E-15  5.826415471858E-15
  3.946119975968E-15  2.661050535200E-15  1.786599983607E-15  1.194180527180E-15
  7.946171081344E-16  5.263415216112E-16  3.470366851552E-16  2.277493370931E-16
  1.487607920873E-16  9.670408092212E-17  6.256062643305E-17  4.027467141582E-17
  2.579953269352E-17  1.644426450595E-17  1.042829277564E-17  6.579318019496E-18
  4.129423336634E-18  2.578158980327E-18  1.340861707792E-18  0.000000000000E+00
  0.000000000000E+00  0.000000000000E+00  0.000000000000E+00  0.000000000000E+00
  0.000000000000E+00  0.000000000000E+00  0.000000000000E+00  0.000000000000E+00
  0.000000000000E+00  0.000000000000E+00  0.000000000000E+00  0.000000000000E+00
  0.000000000000E+00  0.000000000000E+00  0.000000000000E+00  0.000000000000E+00
  0.000000000000E+00  0.000000000000E+00  0.000000000000E+00  0.000000000000E+00
  0.000000000000E+00  0.000000000000E+00  0.000000000000E+00  0.000000000000E+00
  0.000000000000E+00  0.000000000000E+00  0.000000000000E+00  0.000000000000E+00
  0.000000000000E+00
</data>
</radfunc>
</valence-charge>
<pseudocore-charge matching-radius="0.320762806835"
 number-of-continuous-derivatives="4">
<annotation model-charge-form="Teter function with specified parameters" />
<radfunc>
<data npts="290">
  2.254665068893E+02  2.253880182897E+02  2.251535140537E+02  2.247626957779E+02
  2.242201865221E+02  2.235083683248E+02  2.226036696120E+02  2.215711506552E+02
  2.204145680303E+02  2.190716416111E+02  2.175654370815E+02  2.159372827040E+02
  2.139820068723E+02  2.119543939547E+02  2.095814413806E+02  2.072319423159E+02
  2.045515091160E+02  2.020353691672E+02  1.992351666197E+02  1.961237265286E+02
  1.926725832762E+02  1.896473267565E+02  1.863705090793E+02  1.828267955525E+02
  1.790010936689E+02  1.748788619324E+02  1.704464835299E+02  1.669112328759E+02
  1.631901019659E+02  1.592793329703E+02  1.551760607146E+02  1.508784824826E+02
  1.463860417313E+02  1.416996245237E+02  1.368217667726E+02  1.317568695208E+02
  1.265114184701E+02  1.210942027948E+02  1.173927737418E+02  1.136239849081E+02
  1.097924077936E+02  1.059031945465E+02  1.019620954339E+02  9.797547217852E+01
  9.395030636193E+01  8.989420205062E+01  8.581538175946E+01  8.172267484357E+01
  7.762549740063E+01  7.353382277919E+01  6.945814182657E+01  6.540941207954E+01
  6.139899520495E+01  5.743858214199E+01  5.354010558655E+01  4.971563969514E+01
  4.597728717376E+01  4.233705425762E+01  3.880671447960E+01  3.539766256616E+01
  3.212076028326E+01  2.898617657108E+01  2.600322484293E+01  2.318020086051E+01
  2.052422511336E+01  1.804109409610E+01  1.573514526068E+01  1.464954156297E+01
  1.360914068679E+01  1.261402655637E+01  1.166417462235E+01  1.075945063149E+01
  9.899609958733E+00  9.084297532896E+00  8.313048384165E+00  7.585288837396E+00
  6.900338370623E+00  6.257412152981E+00  5.655624270454E+00  5.093991641414E+00
  4.571438617241E+00  4.086802255703E+00  3.638838247263E+00  3.226227466265E+00
  2.847583110732E+00  2.501458386030E+00  2.186354679287E+00  1.900730163125E+00
  1.643008759314E+00  1.411589385362E+00  1.204855400151E+00  1.021184158546E+00
  8.589565797164E-01  7.165666298343E-01  5.924306170583E-01  4.849961953697E-01
  3.927509741342E-01  3.142306322433E-01  2.480264395012E-01  1.927920935975E-01
  1.472497885768E-01  1.101954401633E-01  8.050300455144E-02  5.712784022574E-02
  3.910907684211E-02  2.557097097896E-02  1.572324536302E-02  8.860425669503E-03
  4.360206812983E-03  1.680898370662E-03  3.580159672100E-04  1.016356798109E-07
  2.838708786509E-04  9.487969238760E-04  1.791253059405E-03  2.658341547226E-03
  3.441542115165E-03  4.070314155916E-03  4.505784356591E-03  4.734645489206E-03
  4.763382581029E-03  4.612929852359E-03  4.313845989688E-03  3.902076976017E-03
  3.415355410316E-03  2.890263703481E-03  2.359966510914E-03  1.852596078945E-03
  1.390253691492E-03  9.885719338615E-04  6.567668122296E-04  3.980965477539E-04
  2.106356285662E-04  8.826879733650E-05  2.181021493937E-05  1.579827965748E-07
  1.140320388521E-05  4.382526334927E-05  8.672025613366E-05  1.310265538455E-04
  1.697293408674E-04  1.980434603774E-04  2.133900107770E-04  2.151958305330E-04
  2.045554787937E-04  1.838019662460E-04  1.560350050434E-04  1.246539336992E-04
  9.293706185469E-05  6.370060464027E-05  3.905952819027E-05  2.030058237109E-05
  7.865719860800E-06  1.433141032428E-06  7.438179584882E-08  2.459964739201E-06
  7.083634439586E-06  1.247619731710E-05  1.738420089586E-05  2.089547508131E-05
  2.250199060685E-05  2.209946047630E-05  1.993146913368E-05  1.649261385076E-05
  1.240937639302E-05  8.318754110681E-06  4.763028277516E-06  2.114818559711E-06
  5.405215596192E-07  3.372983080931E-09  0.000000000000E+00  0.000000000000E+00
  0.000000000000E+00  0.000000000000E+00  0.000000000000E+00  0.000000000000E+00
  0.000000000000E+00  0.000000000000E+00  0.000000000000E+00  0.000000000000E+00
  0.000000000000E+00  0.000000000000E+00  0.000000000000E+00  0.000000000000E+00
  0.000000000000E+00  0.000000000000E+00  0.000000000000E+00  0.000000000000E+00
  0.000000000000E+00  0.000000000000E+00  0.000000000000E+00  0.000000000000E+00
  0.000000000000E+00  0.000000000000E+00  0.000000000000E+00  0.000000000000E+00
  0.000000000000E+00  0.000000000000E+00  0.000000000000E+00  0.000000000000E+00
  0.000000000000E+00  0.000000000000E+00  0.000000000000E+00  0.000000000000E+00
  0.000000000000E+00  0.000000000000E+00  0.000000000000E+00  0.000000000000E+00
  0.000000000000E+00  0.000000000000E+00  0.000000000000E+00  0.000000000000E+00
  0.000000000000E+00  0.000000000000E+00  0.000000000000E+00  0.000000000000E+00
  0.000000000000E+00  0.000000000000E+00  0.000000000000E+00  0.000000000000E+00
  0.000000000000E+00  0.000000000000E+00  0.000000000000E+00  0.000000000000E+00
  0.000000000000E+00  0.000000000000E+00  0.000000000000E+00  0.000000000000E+00
  0.000000000000E+00  0.000000000000E+00  0.000000000000E+00  0.000000000000E+00
  0.000000000000E+00  0.000000000000E+00  0.000000000000E+00  0.000000000000E+00
  0.000000000000E+00  0.000000000000E+00  0.000000000000E+00  0.000000000000E+00
  0.000000000000E+00  0.000000000000E+00  0.000000000000E+00  0.000000000000E+00
  0.000000000000E+00  0.000000000000E+00  0.000000000000E+00  0.000000000000E+00
  0.000000000000E+00  0.000000000000E+00  0.000000000000E+00  0.000000000000E+00
  0.000000000000E+00  0.000000000000E+00  0.000000000000E+00  0.000000000000E+00
  0.000000000000E+00  0.000000000000E+00  0.000000000000E+00  0.000000000000E+00
  0.000000000000E+00  0.000000000000E+00  0.000000000000E+00  0.000000000000E+00
  0.000000000000E+00  0.000000000000E+00  0.000000000000E+00  0.000000000000E+00
  0.000000000000E+00  0.000000000000E+00  0.000000000000E+00  0.000000000000E+00
  0.000000000000E+00  0.000000000000E+00  0.000000000000E+00  0.000000000000E+00
  0.000000000000E+00  0.000000000000E+00  0.000000000000E+00  0.000000000000E+00
  0.000000000000E+00  0.000000000000E+00  0.000000000000E+00  0.000000000000E+00
  0.000000000000E+00  0.000000000000E+00  0.000000000000E+00  0.000000000000E+00
  0.000000000000E+00  0.000000000000E+00
</data>
</radfunc>
</pseudocore-charge>
<semilocal-potentials set="lj">
<slps n="3" l="s" j="0.5" rc="1.20564900768" eref="-6.97640302183">
<radfunc>
<data npts="290">
 -4.182963159570E+01 -4.182939510124E+01 -4.182868811683E+01 -4.182750866518E+01
 -4.182586889290E+01 -4.182371282860E+01 -4.182096492269E+01 -4.181781807199E+01
 -4.181427912086E+01 -4.181015078634E+01 -4.180549500047E+01 -4.180043062857E+01
 -4.179430328243E+01 -4.178789423114E+01 -4.178031856930E+01 -4.177273359584E+01
 -4.176397189376E+01 -4.175563601283E+01 -4.174622485082E+01 -4.173559172203E+01
 -4.172356675907E+01 -4.171281285831E+01 -4.170092577157E+01 -4.168777283552E+01
 -4.167320237233E+01 -4.165704026370E+01 -4.163908582779E+01 -4.162430544731E+01
 -4.160827555154E+01 -4.159087117359E+01 -4.157195196883E+01 -4.155136005013E+01
 -4.152891751586E+01 -4.150442363210E+01 -4.147765162741E+01 -4.144834505608E+01
 -4.141621368554E+01 -4.138092886480E+01 -4.135547186873E+01 -4.132832667366E+01
 -4.129936048314E+01 -4.126842906638E+01 -4.123537584342E+01 -4.120003093414E+01
 -4.116221018354E+01 -4.112171418118E+01 -4.107832730009E+01 -4.103181678970E+01
 -4.098193196814E+01 -4.092840357179E+01 -4.087094333307E+01 -4.080924386973E+01
 -4.074297897769E+01 -4.067180442014E+01 -4.059535929336E+01 -4.051326801690E+01
 -4.042514293704E+01 -4.033058744326E+01 -4.022919938135E+01 -4.012057441866E+01
 -4.000430890472E+01 -3.988000171832E+01 -3.974725464682E+01 -3.960567103750E+01
 -3.945485278960E+01 -3.929439615446E+01 -3.912388716355E+01 -3.903472987455E+01
 -3.894289767716E+01 -3.884833443928E+01 -3.875098295061E+01 -3.865078496301E+01
 -3.854768126270E+01 -3.844161177056E+01 -3.833251566539E+01 -3.822033152504E+01
 -3.810499748053E+01 -3.798645137891E+01 -3.786463095216E+01 -3.773947399078E+01
 -3.761091852200E+01 -3.747890299434E+01 -3.734336647099E+01 -3.720424883504E+01
 -3.706149101014E+01 -3.691503519901E+01 -3.676482514199E+01 -3.661080639580E+01
 -3.645292663124E+01 -3.629113594644E+01 -3.612538719051E+01 -3.595563629046E+01
 -3.578184257319E+01 -3.560396907321E+01 -3.542198281707E+01 -3.523585507561E+01
 -3.504556157696E+01 -3.485108267499E+01 -3.465240347057E+01 -3.444951388580E+01
 -3.424240869446E+01 -3.403108751452E+01 -3.381555477113E+01 -3.359581963994E+01
 -3.337189598194E+01 -3.314380228101E+01 -3.291156159486E+01 -3.267520152881E+01
 -3.243475424007E+01 -3.219025647798E+01 -3.194174966355E+01 -3.168928000889E+01
 -3.143289867564E+01 -3.117266196880E+01 -3.090863156172E+01 -3.064087474602E+01
 -3.036946470017E+01 -3.009448076968E+01 -2.981600875180E+01 -2.953414117831E+01
 -2.924897758984E+01 -2.896062479649E+01 -2.866919712022E+01 -2.837481661582E+01
 -2.807761326889E+01 -2.777772517155E+01 -2.747529867936E+01 -2.717048855660E+01
 -2.686345812255E+01 -2.655437941761E+01 -2.624343341730E+01 -2.593081033320E+01
 -2.561671005379E+01 -2.530134279501E+01 -2.498493004971E+01 -2.466770594634E+01
 -2.434991914903E+01 -2.403183545153E+01 -2.371374123374E+01 -2.339594795829E+01
 -2.307879788390E+01 -2.276267115814E+01 -2.244799442555E+01 -2.213525104726E+01
 -2.182499297967E+01 -2.151785430736E+01 -2.121456637580E+01 -2.091597443192E+01
 -2.062305566194E+01 -2.033693852785E+01 -2.005892335756E+01 -1.979050425887E+01