<?xml version="1.0" encoding="UTF-8" ?>
<psml version="1.1" energy_unit="hartree" length_unit="bohr"
 uuid="a9c781d0-539f-11e8-4279-f853feef1384"
 xmlns="http://esl.cecam.org/PSML/ns/1.1">
<provenance creator="ONCVPSP-3.3.0+psml-3.3.0-73 (fully-relativistic)"
 date="2018-05-09">
<annotation action="semilocal-pseudopotential-generation"
 action-cont="projectors-generation" />
<input-file name="oncvpsp-input">
<![CDATA[# atsym z nc nv iexc psfile
Ta 73 10 4 -116133 upf
# n l f
1 0 2.0
2 0 2.0
2 1 6.0
3 0 2.0
3 1 6.0
3 2 10.0
4 0 2.0
4 1 6.0
4 2 10.0
4 3 14.0
5 0 2.0
5 1 6.0
5 2 3.0
6 0 2.0
# lmax
3
# l rc ep ncon nbas qcut
0 1.7 0.0 4 8 7.0
1 1.7 0.0 4 8 7.4
2 1.7 0.0 4 9 6.6
3 2.25 0.5 4 8 6.8
# lloc lpopt rc5 dvloc0
4 5 1.6 0.0
# l nproj debl
0 2 2.0
1 2 1.5
2 2 1.8
3 2 2.5
# icmod fcfact rcfact
3 5.0 1.36
# epsh1 epsh2 depsh
-12.0 12.0 0.02
# rlmax drl
6.0 0.01
 0
]]>
</input-file>
</provenance>
<pseudo-atom-spec atomic-label="Ta" atomic-number="73" z-pseudo="13"
 flavor="Hamann&apos;s oncvpsp" relativity="dirac" spin-dft="no"
 core-corrections="yes">
<annotation pseudo-energy="-58.8394935040" />
<exchange-correlation>
<annotation oncvpsp-xc-code="-116133" oncvpsp-xc-type="libxc-interface" />
<libxc-info number-of-functionals="2">
<functional name="Perdew, Burke &amp; Ernzerhof SOL (GGA)" type="exchange"
 id="116" />
<functional name="Perdew, Burke &amp; Ernzerhof SOL (GGA)" type="correlation"
 id="133" />
</libxc-info>
</exchange-correlation>
<valence-configuration total-valence-charge="13">
<shell n="5" l="s" occupation="2" />
<shell n="5" l="p" occupation="6" />
<shell n="5" l="d" occupation="3" />
<shell n="6" l="s" occupation="2" />
</valence-configuration>
</pseudo-atom-spec>
<grid npts="458">
<annotation type="sampled from oncvpsp log grid"
 recipe="r(i:1..N) = r1*exp(a*(i-1)) + r=0; resampled"
 recipe-cont="r1: scale; a: step" scale="0.684931506849E-05"
 step="0.119285708653E-01" delta="0.500000000000E-02" rmax="44.4652856571" />
<grid-data>
  0.000000000000E+00  5.017305651402E-03  1.002167429467E-02  1.503410950261E-02
  2.025771802601E-02  2.541091241664E-02  3.075448503181E-02  3.591328416708E-02
  4.094876041219E-02  4.613663167149E-02  5.136537901594E-02  5.650860641260E-02
  6.216682636963E-02  6.758063756162E-02  7.259477435141E-02  7.798093438119E-02
  8.376671986784E-02  8.891480333121E-02  9.437927453650E-02  1.001795778466E-01
  1.063363526242E-01  1.115331093606E-01  1.169838364460E-01  1.227009456482E-01
  1.286974553096E-01  1.349870199913E-01  1.415839615656E-01  1.467423931104E-01
  1.520887655471E-01  1.576299262629E-01  1.633729721210E-01  1.693252585498E-01
  1.754944089633E-01  1.818883245250E-01  1.885151942671E-01  1.953835055789E-01
  2.025020550769E-01  2.098799598710E-01  2.149473016221E-01  2.201369892725E-01
  2.254519767415E-01  2.308952892679E-01  2.364700251320E-01  2.421793574188E-01
  2.480265358243E-01  2.540148885053E-01  2.601478239733E-01  2.664288330354E-01
  2.728614907802E-01  2.794494586136E-01  2.861964863423E-01  2.931064143086E-01
  3.001831755756E-01  3.074307981667E-01  3.148534073577E-01  3.224552280249E-01
  3.302405870504E-01  3.382139157841E-01  3.463797525668E-01  3.547427453128E-01
  3.633076541556E-01  3.720793541575E-01  3.810628380843E-01  3.902632192470E-01
  3.996857344125E-01  4.093357467842E-01  4.192187490545E-01  4.242493740432E-01
  4.293403665317E-01  4.344924509301E-01  4.397063603412E-01  4.449828366653E-01
  4.503226307053E-01  4.557265022738E-01  4.611952203011E-01  4.667295629447E-01
  4.723303177000E-01  4.779982815124E-01  4.837342608906E-01  4.895390720212E-01
  4.954135408855E-01  5.013585033761E-01  5.073748054166E-01  5.134633030816E-01
  5.196248627186E-01  5.258603610712E-01  5.321706854041E-01  5.385567336290E-01
  5.450194144325E-01  5.515596474057E-01  5.581783631746E-01  5.648765035327E-01
  5.716550215750E-01  5.785148818339E-01  5.854570604160E-01  5.924825451409E-01
  5.995923356826E-01  6.067874437108E-01  6.140688930354E-01  6.214377197518E-01
  6.288949723888E-01  6.364417120575E-01  6.440790126022E-01  6.518079607534E-01
  6.596296562824E-01  6.675452121578E-01  6.755557547037E-01  6.836624237601E-01
  6.918663728453E-01  7.001687693194E-01  7.085707945512E-01  7.170736440859E-01
  7.256785278149E-01  7.343866701487E-01  7.431993101905E-01  7.521177019127E-01
  7.611431143357E-01  7.702768317077E-01  7.795201536882E-01  7.888743955325E-01
  7.983408882789E-01  8.079209789382E-01  8.176160306855E-01  8.274274230537E-01
  8.373565521303E-01  8.474048307559E-01  8.575736887250E-01  8.678645729897E-01
  8.782789478655E-01  8.888182952399E-01  8.994841147828E-01  9.102779241602E-01
  9.212012592501E-01  9.322556743611E-01  9.434427424535E-01  9.547640553629E-01
  9.662212240273E-01  9.778158787156E-01  9.895496692602E-01  1.001424265291E+00
  1.013441356475E+00  1.025602652752E+00  1.037909884586E+00  1.050364803201E+00
  1.062969180839E+00  1.075724811009E+00  1.088633508741E+00  1.101697110846E+00
  1.114917476176E+00  1.128296485890E+00  1.141836043721E+00  1.155538076246E+00
  1.169404533161E+00  1.183437387559E+00  1.197638636209E+00  1.212010299844E+00
  1.226554423442E+00  1.241273076523E+00  1.256168353441E+00  1.271242373683E+00
  1.286497282167E+00  1.301935249553E+00  1.317558472548E+00  1.333369174218E+00
  1.349369604309E+00  1.365562039560E+00  1.381948784035E+00  1.398532169444E+00
  1.415314555477E+00  1.432298330143E+00  1.449485910104E+00  1.466879741026E+00
  1.484482297918E+00  1.502296085493E+00  1.520323638519E+00  1.538567522181E+00
  1.557030332447E+00  1.575714696437E+00  1.594623272794E+00  1.613758752067E+00
  1.633123857092E+00  1.652721343377E+00  1.672553999498E+00  1.692624647492E+00
  1.712936143262E+00  1.733491376981E+00  1.754293273505E+00  1.775344792787E+00
  1.796648930300E+00  1.818208717464E+00  1.840027222073E+00  1.862107548738E+00
  1.884452839323E+00  1.907066273395E+00  1.929951068676E+00  1.953110481500E+00
  1.976547807278E+00  2.000266380965E+00  2.024269577537E+00  2.048560812467E+00
  2.073143542217E+00  2.098021264723E+00  2.123197519900E+00  2.148675890139E+00
  2.174460000820E+00  2.200553520830E+00  2.226960163080E+00  2.253683685037E+00
  2.280727889258E+00  2.308096623929E+00  2.335793783416E+00  2.363823308817E+00
  2.392189188523E+00  2.420895458785E+00  2.449946204290E+00  2.479345558742E+00
  2.509097705447E+00  2.539206877912E+00  2.569677360447E+00  2.600513488772E+00
  2.631719650638E+00  2.663300286445E+00  2.695259889883E+00  2.727603008561E+00
  2.760334244664E+00  2.793458255600E+00  2.826979754667E+00  2.860903511723E+00
  2.895234353864E+00  2.929977166110E+00  2.965136892104E+00  3.000718534809E+00
  3.036727157226E+00  3.073167883113E+00  3.110045897711E+00  3.147366448483E+00
  3.185134845865E+00  3.223356464015E+00  3.262036741583E+00  3.301181182482E+00
  3.340795356672E+00  3.380884900952E+00  3.421455519764E+00  3.462512986001E+00
  3.504063141833E+00  3.546111899535E+00  3.588665242329E+00  3.631729225237E+00
  3.675309975940E+00  3.719413695651E+00  3.764046659999E+00  3.809215219919E+00
  3.854925802558E+00  3.901184912189E+00  3.947999131135E+00  3.995375120709E+00
  4.043319622157E+00  4.091839457623E+00  4.140941531115E+00  4.190632829488E+00
  4.240920423442E+00  4.291811468523E+00  4.343313206145E+00  4.395432964619E+00
  4.448178160195E+00  4.501556298117E+00  4.555574973694E+00  4.610241873379E+00
  4.665564775859E+00  4.721551553170E+00  4.778210171808E+00  4.835548693869E+00
  4.893575278196E+00  4.952298181534E+00  5.011725759713E+00  5.071866468829E+00
  5.132728866455E+00  5.194321612852E+00  5.256653472207E+00  5.319733313873E+00
  5.383570113640E+00  5.448172955003E+00  5.513551030463E+00  5.579713642829E+00
  5.646670206543E+00  5.714430249021E+00  5.783003412010E+00  5.852399452954E+00
  5.922628246389E+00  5.993699785346E+00  6.065624182770E+00  6.138411672963E+00
  6.212072613039E+00  6.286617484395E+00  6.362056894208E+00  6.438401576939E+00
  6.515662395862E+00  6.593850344612E+00  6.672976548748E+00  6.753052267332E+00
  6.834088894540E+00  6.916097961275E+00  6.999091136810E+00  7.083080230452E+00
  7.168077193217E+00  7.254094119536E+00  7.341143248970E+00  7.429236967958E+00
  7.518387811574E+00  7.608608465312E+00  7.699911766896E+00  7.792310708099E+00
  7.885818436596E+00  7.980448257835E+00  8.076213636929E+00  8.173128200572E+00
  8.271205738979E+00  8.370460207847E+00  8.470905730341E+00  8.572556599105E+00
  8.675427278295E+00  8.779532405634E+00  8.884886794502E+00  8.991505436036E+00
  9.099403501268E+00  9.208596343283E+00  9.319099499403E+00  9.430928693396E+00
  9.544099837716E+00  9.658629035769E+00  9.774532584198E+00  9.891826975209E+00
  1.001052889891E+01  1.013065524570E+01  1.025222310865E+01  1.037524978595E+01
  1.049975278338E+01  1.062574981678E+01  1.075325881458E+01  1.088229792036E+01
  1.101288549540E+01  1.114504012135E+01  1.127878060280E+01  1.141412597004E+01
  1.155109548168E+01  1.168970862746E+01  1.182998513099E+01  1.197194495256E+01
  1.211560829199E+01  1.226099559149E+01  1.240812753859E+01  1.255702506906E+01
  1.270770936988E+01  1.286020188232E+01  1.301452430491E+01  1.317069859657E+01
  1.332874697973E+01  1.348869194348E+01  1.365055624681E+01  1.381436292177E+01
  1.398013527683E+01  1.414789690015E+01  1.431767166295E+01  1.448948372291E+01
  1.466335752758E+01  1.483931781791E+01  1.501738963173E+01  1.519759830731E+01
  1.537996948700E+01  1.556452912084E+01  1.575130347029E+01  1.594031911194E+01
  1.613160294128E+01  1.632518217657E+01  1.652108436269E+01  1.671933737505E+01
  1.691996942355E+01  1.712300905663E+01  1.732848516531E+01  1.753642698729E+01
  1.774686411114E+01  1.795982648047E+01  1.817534439824E+01  1.839344853102E+01
  1.861416991339E+01  1.883753995235E+01  1.906359043178E+01  1.929235351696E+01
  1.952386175916E+01  1.975814810027E+01  1.999524587748E+01  2.023518882801E+01
  2.047801109394E+01  2.072374722707E+01  2.097243219379E+01  2.122410138012E+01
  2.147879059668E+01  2.173653608384E+01  2.199737451685E+01  2.226134301105E+01
  2.252847912718E+01  2.279882087671E+01  2.307240672723E+01  2.334927560796E+01
  2.362946691525E+01  2.391302051823E+01  2.419997676445E+01  2.449037648563E+01
  2.478426100345E+01  2.508167213550E+01  2.538265220112E+01  2.568724402754E+01
  2.599549095587E+01  2.630743684734E+01  2.662312608950E+01  2.694260360258E+01
  2.726591484581E+01  2.759310582396E+01  2.792422309385E+01  2.825931377097E+01
  2.859842553622E+01  2.894160664266E+01  2.928890592237E+01  2.964037279344E+01
  2.999605726696E+01  3.035600995416E+01  3.072028207361E+01  3.108892545850E+01
  3.146199256400E+01  3.183953647477E+01  3.222161091246E+01  3.260827024341E+01
  3.299956948633E+01  3.339556432017E+01  3.379631109201E+01  3.420186682512E+01
  3.461228922702E+01  3.502763669774E+01  3.544796833812E+01  3.587334395817E+01
  3.630382408567E+01  3.673946997470E+01  3.718034361440E+01  3.762650773777E+01
  3.807802583062E+01  3.853496214059E+01  3.899738168628E+01  3.946535026651E+01
  3.993893446971E+01  4.041820168335E+01  4.090322010355E+01  4.139405874479E+01
  4.189078744973E+01  4.239347689912E+01  4.290219862191E+01  4.341702500538E+01
  4.393802930544E+01  4.446528565711E+01
</grid-data>
</grid>
<valence-charge total-charge="13" is-unscreening-charge="yes"
 rescaled-to-z-pseudo="no">
<radfunc>
<data npts="458">
  1.931525276010E+00  1.932151282227E+00  1.934022693829E+00  1.937145103771E+00
  1.941727287068E+00  1.947574909752E+00  1.955029142826E+00  1.963566969208E+00
  1.973169499096E+00  1.984371119266E+00  1.997001841770E+00  2.010736063805E+00
  2.027342274059E+00  2.044694621823E+00  2.062038196092E+00  2.082026692884E+00
  2.105059088768E+00  2.126906195537E+00  2.151483687005E+00  2.179127289787E+00
  2.210212478071E+00  2.237838872847E+00  2.268172379183E+00  2.301471454481E+00
  2.338017729464E+00  2.378117742211E+00  2.422104717272E+00  2.457862237783E+00
  2.496172707758E+00  2.537209813937E+00  2.581157635783E+00  2.628211016921E+00
  2.678575899421E+00  2.732469607599E+00  2.790121065364E+00  2.851770927952E+00
  2.917671605236E+00  2.988087149504E+00  3.037674657942E+00  3.089475273300E+00
  3.143575375822E+00  3.200063293922E+00  3.259029161223E+00  3.320564741905E+00
  3.384763220370E+00  3.451718950804E+00  3.521527161809E+00  3.594283610779E+00
  3.670084182223E+00  3.749024423707E+00  3.831199012523E+00  3.916701145657E+00
  4.005621845018E+00  4.098049169316E+00  4.194067323400E+00  4.293755655309E+00
  4.397187530754E+00  4.504429074315E+00  4.615537766248E+00  4.730560883578E+00
  4.849533774054E+00  4.972477951692E+00  5.099399003062E+00  5.230284294197E+00
  5.365100469206E+00  5.503790733345E+00  5.646271915605E+00  5.718900124764E+00
  5.792431308901E+00  5.866846210016E+00  5.942123289799E+00  6.018238612470E+00
  6.095165724610E+00  6.172875532132E+00  6.251336174611E+00  6.330512897204E+00
  6.410367920442E+00  6.490860308218E+00  6.571945834342E+00  6.653576848075E+00
  6.735702139120E+00  6.818266802594E+00  6.901212104577E+00  6.984475348874E+00
  7.067989745731E+00  7.151684283272E+00  7.235483602540E+00  7.319307877063E+00
  7.403072697983E+00  7.486688965829E+00  7.570062790137E+00  7.653095398167E+00
  7.735683054093E+00  7.817716990088E+00  7.899083350844E+00  7.979663153132E+00
  8.059332262093E+00  8.137961386031E+00  8.215416091550E+00  8.291556840940E+00
  8.366239053774E+00  8.439313194736E+00  8.510624889719E+00  8.580015072261E+00
  8.647320162409E+00  8.712372280051E+00  8.774999494770E+00  8.835026114174E+00
  8.892273012605E+00  8.946558002017E+00  8.997696246648E+00  9.045500722976E+00
  9.089782726212E+00  9.130352424355E+00  9.167019460532E+00  9.199593604047E+00
  9.227885450165E+00  9.251707168266E+00  9.270873297547E+00  9.285201588948E+00
  9.294513891438E+00  9.298637080228E+00  9.297404023844E+00  9.290654586372E+00
  9.278236660467E+00  9.260007226060E+00  9.235833428960E+00  9.205593672813E+00
  9.169178717193E+00  9.126492773862E+00  9.077454592580E+00  9.021998527178E+00
  8.960075572057E+00  8.891654358715E+00  8.816722101499E+00  8.735285481425E+00
  8.647371456694E+00  8.553027988434E+00  8.452324670256E+00  8.345353250412E+00
  8.232228035716E+00  8.113086166956E+00  7.988087756221E+00  7.857415877523E+00
  7.721276403135E+00  7.579897679389E+00  7.433530037046E+00  7.282445132961E+00
  7.126935121465E+00  6.967311655642E+00  6.803904720602E+00  6.637061302707E+00
  6.467143900640E+00  6.294528886067E+00  6.119604723438E+00  5.942770060164E+00
  5.764431699965E+00  5.585002473558E+00  5.404899022047E+00  5.224539509408E+00
  5.044341281198E+00  4.864718487279E+00  4.686079686738E+00  4.508825453447E+00
  4.333346000889E+00  4.160018844930E+00  3.989206523287E+00  3.821254390475E+00
  3.656488507148E+00  3.495213642931E+00  3.337711412086E+00  3.184238561739E+00
  3.035025432760E+00  2.890274613758E+00  2.750159808953E+00  2.614824940679E+00
  2.484383507066E+00  2.358918214572E+00  2.238480903731E+00  2.123092784247E+00
  2.012744992646E+00  1.907399482101E+00  1.806990250358E+00  1.711424906453E+00
  1.620586568916E+00  1.534337054652E+00  1.452524137440E+00  1.374990909111E+00
  1.301577087523E+00  1.232120062814E+00  1.166455966539E+00  1.104420615341E+00
  1.045850376698E+00  9.905829537418E-01  9.384580910892E-01  8.893182040510E-01
  8.430089339091E-01  7.993796322833E-01  7.582837778823E-01  7.195793291573E-01
  6.831290165425E-01  6.488005780864E-01  6.164669423429E-01  5.860063624177E-01
  5.573025050452E-01  5.302444985150E-01  5.047269431829E-01  4.806498881853E-01
  4.579187778448E-01  4.364443711077E-01  4.161426371946E-01  3.969346304881E-01
  3.787463475155E-01  3.615085687229E-01  3.451566875815E-01  3.296305293935E-01
  3.148741620540E-01  3.008357008034E-01  2.874671089208E-01  2.747239961131E-01
  2.625654162233E-01  2.509536657257E-01  2.398540843273E-01  2.292348588434E-01
  2.190668313735E-01  2.093233126630E-01  1.999799013999E-01  1.910143100690E-01
  1.824061978663E-01  1.741370110640E-01  1.661898311140E-01  1.585492306848E-01
  1.512011377430E-01  1.441327077145E-01  1.373322036953E-01  1.307888846235E-01
  1.244929012727E-01  1.184351998865E-01  1.126074332346E-01  1.070018788418E-01
  1.016113641175E-01  9.642919809151E-02  9.144910944704E-02  8.666519053203E-02
  8.207184701962E-02  7.766375288624E-02  7.343581037309E-02  6.938311459823E-02
  6.550092248979E-02  6.178462571665E-02  5.822972730019E-02  5.483182160051E-02
  5.158657738151E-02  4.848972367180E-02  4.553703815296E-02  4.272433782181E-02
  4.004747169027E-02  3.750231530369E-02  3.508476687674E-02  3.279074485692E-02
  3.061618679143E-02  2.855704926995E-02  2.660930889346E-02  2.476896411424E-02
  2.303203785149E-02  2.139458078956E-02  1.985267527282E-02  1.840243971570E-02
  1.704003344814E-02  1.576166191652E-02  1.456358215796E-02  1.344210846334E-02
  1.239361814136E-02  1.141455729378E-02  1.050144651120E-02  9.650886399775E-03
  8.859562852224E-03  8.124251982328E-03  7.441824649512E-03  6.809250509833E-03
  6.223601540808E-03  5.682054999723E-03  5.181895787729E-03  4.720518204810E-03
  4.295427092944E-03  3.904238376244E-03  3.544679017123E-03  3.214586416450E-03
  2.911907293058E-03  2.634696083810E-03  2.381112909741E-03  2.149421156610E-03
  1.937984719727E-03  1.745264963134E-03  1.569817442487E-03  1.410288439305E-03
  1.265411351839E-03  1.134002984932E-03  1.014959777820E-03  9.072540047999E-04
  8.099299821586E-04  7.221003048714E-04  6.429421384862E-04  5.716936035297E-04
  5.076502289447E-04  4.501615035499E-04  3.986275896598E-04  3.524961435002E-04
  3.112592394536E-04  2.744504450064E-04  2.416420352939E-04  2.124423382153E-04
  1.864932126943E-04  1.634676585287E-04  1.430675547201E-04  1.250215228797E-04
  1.090829119093E-04  9.502789990500E-05  8.265370907958E-05  7.177692942895E-05
  6.223194685190E-05  5.386947145489E-05  4.655516182247E-05  4.016834109575E-05
  3.460080077072E-05  2.975568819902E-05  2.554647384358E-05  2.189599440947E-05
  1.873556803618E-05  1.600417780230E-05  1.364771985907E-05  1.161831257647E-05
  9.873663156661E-06  8.376488245667E-06  7.093985156372E-06  5.997350405311E-06
  5.061342362173E-06  4.263884915039E-06  3.585709165505E-06  3.010030285586E-06
  2.522256791806E-06  2.109729620255E-06  1.761488518493E-06  1.468063404850E-06
  1.221288481824E-06  1.014137026591E-06  8.405749172042E-07  6.954310866351E-07
  5.742832276363E-07  4.733571985292E-07  3.894387027836E-07  3.197959330565E-07
  2.621119827087E-07  2.144259343709E-07  1.750816356221E-07  1.426832661344E-07
  1.160568886543E-07  9.421725796342E-08  7.633923757360E-08  6.173324351499E-08
  4.982419837084E-08  4.013353693463E-08  3.226385778658E-08  2.588586299633E-08
  2.072727136378E-08  1.656342942541E-08  1.320937919507E-08  1.051317259209E-08
  8.350250042814E-09  6.618725124142E-09  5.235438635763E-09  4.132664413213E-09
  3.255365784961E-09  2.558916072658E-09  2.007209158713E-09  1.571097105534E-09
  1.227101295734E-09  9.563517451402E-10  7.437162776564E-10  5.770872845787E-10
  4.467989483387E-10  3.451522057481E-10  2.660284601153E-10  2.045762150186E-10
  1.569574744145E-10  1.201430038841E-10  9.174743723545E-11  6.989679459768E-11
  5.312229880016E-11  4.027547620806E-11  3.046044074515E-11  2.298001517433E-11
  1.729296714048E-11  1.298015059502E-11  9.717764353624E-12  7.256284209476E-12
  5.403906331358E-12  4.013568629466E-12  2.972802598556E-12  2.195818554822E-12
  1.617348587384E-12  1.187869263438E-12  8.699045689476E-13  6.351723727247E-13
  4.623878637950E-13  3.355769202425E-13  2.200023962479E-13  1.589368796027E-13
  1.144514738385E-13  5.215582973164E-15  3.476364467462E-15  2.306520594609E-15
  1.523263797318E-15  1.001277645975E-15  6.550449582674E-16  4.264814618697E-16
  2.763227501913E-16  1.781538573708E-16  1.142905389221E-16  7.295177159891E-17
  4.632822394296E-17  2.926935288326E-17  1.839548932407E-17  1.150040382391E-17
  7.151395479115E-18  4.422996181947E-18  2.720584150988E-18  1.664175096096E-18
  1.012274295682E-18  6.122523566053E-19  3.681850618613E-19  2.201280183130E-19
  1.308361032628E-19  7.730227667916E-20  4.539816448768E-20  2.649928594934E-20
  1.537262665679E-20  8.862327536676E-21  5.076924559298E-21  2.889840098492E-21
  1.634307217698E-21  9.182195928269E-22  5.124814612922E-22  2.841148080107E-22
  1.564438937646E-22  8.555332503628E-23  4.646144746737E-23  2.505472807383E-23
  1.341500339047E-23  7.131128626920E-24  3.763178623387E-24  0.000000000000E+00
  0.000000000000E+00  0.000000000000E+00  0.000000000000E+00  0.000000000000E+00
  0.000000000000E+00  0.000000000000E+00
</data>
</radfunc>
</valence-charge>
<pseudocore-charge matching-radius="0.989549669260"
 number-of-continuous-derivatives="4">
<annotation model-charge-form="Teter function with specified parameters" />
<radfunc>
<data npts="291">
  4.274795293932E+01  4.274607574565E+01  4.274046397373E+01  4.273110091272E+01
  4.271736062236E+01  4.269982598575E+01  4.267747416781E+01  4.265187367329E+01
  4.262308133288E+01  4.258949509352E+01  4.255162495240E+01  4.251044741351E+01
  4.246066070229E+01  4.240863868249E+01  4.235664452854E+01  4.229672293368E+01
  4.222767837231E+01  4.216218869870E+01  4.208851596667E+01  4.200565392738E+01
  4.191247696464E+01  4.182966810040E+01  4.173874454634E+01  4.163893058288E+01
  4.152938042231E+01  4.140917274771E+01  4.127730501763E+01  4.117010025625E+01
  4.105523188703E+01  4.093217518284E+01  4.080037304166E+01  4.065923454778E+01
  4.050813356379E+01  4.034640737438E+01  4.017335540661E+01  3.998823805609E+01
  3.979027565307E+01  3.957864760813E+01  3.942954619703E+01  3.927372306919E+01
  3.911090414284E+01  3.894080706618E+01  3.876314127813E+01  3.857760811165E+01
  3.838390094458E+01  3.818170540326E+01  3.797069962503E+01  3.775055458567E+01
  3.752093449848E+01  3.728149729237E+01  3.703189517618E+01  3.677177529770E+01
  3.650078050551E+01  3.621855022287E+01  3.592472144279E+01  3.561892985404E+01
  3.530081110821E+01  3.497000223804E+01  3.462614323755E+01  3.426887881458E+01
  3.389786032632E+01  3.351274790829E+01  3.311321280683E+01  3.269893992480E+01
  3.226963058933E+01  3.182500554944E+01  3.136480821023E+01  3.112879678780E+01
  3.088880810844E+01  3.064481805762E+01  3.039680463244E+01  3.014474807122E+01
  2.988863098691E+01  2.962843850414E+01  2.936415839995E+01  2.909578124801E+01
  2.882330056637E+01  2.854671296848E+01  2.826601831737E+01  2.798121988288E+01
  2.769232450168E+01  2.739934273992E+01  2.710228905819E+01  2.680118197865E+01
  2.649604425386E+01  2.618690303710E+01  2.587379005383E+01  2.555674177375E+01
  2.523579958322E+01  2.491100995736E+01  2.458242463153E+01  2.425010077145E+01
  2.391410114154E+01  2.357449427064E+01  2.323135461470E+01  2.288476271544E+01
  2.253480535442E+01  2.218157570158E+01  2.182517345751E+01  2.146570498836E+01
  2.110328345268E+01  2.073802891893E+01  2.037006847287E+01  1.999953631350E+01
  1.962657383664E+01  1.925132970481E+01  1.887395990229E+01  1.849462777407E+01
  1.811350404741E+01  1.773076683482E+01  1.734660161689E+01  1.696120120387E+01
  1.657476567450E+01  1.618750229071E+01  1.579962538696E+01  1.541135623272E+01
  1.502292286681E+01  1.463455990236E+01  1.424650830098E+01  1.385901511514E+01
  1.347233319736E+01  1.308672087542E+01  1.270244159236E+01  1.231976351063E+01
  1.193895907949E+01  1.156030456517E+01  1.118407954328E+01  1.081056635335E+01
  1.044004951521E+01  1.007281510769E+01  9.709150109697E+00  9.349341704614E+00
  8.993676548784E+00  8.642440005347E+00  8.295915344992E+00  7.954382915469E+00
  7.618119282092E+00  7.287396341812E+00  6.962480413821E+00  6.643631310020E+00
  6.331101389120E+00  6.025134598483E+00  5.725965508280E+00  5.433818342896E+00
  5.148906014925E+00  4.871429167494E+00  4.601575230998E+00  4.339517500687E+00
  4.085414241871E+00  3.839407829776E+00  3.601623931340E+00  3.372170736413E+00
  3.151138245990E+00  2.938597625148E+00  2.734600628386E+00  2.539179104982E+00
  2.352344591813E+00  2.174088000860E+00  2.004379408224E+00  1.843167951081E+00
  1.690381838391E+00  1.545928480545E+00  1.409694742309E+00  1.281547322563E+00
  1.161333263292E+00  1.048880589161E+00  9.439990778152E-01  8.464811596648E-01
  7.561029445660E-01  6.726253712777E-01  5.957954740590E-01  5.253477591856E-01
  4.610056825624E-01  4.024832180189E-01  3.494865043139E-01  3.017155573739E-01
  2.588660328794E-01  2.206310230288E-01  1.867028701754E-01  1.567749790933E-01
  1.305436089024E-01  1.077096252195E-01  8.798019291061E-02  7.107038994343E-02
  5.670472328934E-02  4.461852861954E-02  3.455923669444E-02  2.628749085652E-02
  1.957810190299E-02  1.422082881901E-02  1.002097637273E-02  6.799803373443E-03
  4.394738431516E-03  2.659403277144E-03  1.463447031243E-03  6.921982030019E-04
  2.461445346437E-04  4.025403961264E-05  3.153596713538E-06  7.618418030362E-05
  2.123541380921E-04  3.752137915337E-04  5.376759560447E-04  6.808076983936E-04
  7.926187212583E-04  8.668711634495E-04  9.019343234145E-04  8.997058715989E-04
  8.646185571041E-04  8.027483040615E-04  7.210360258830E-04  6.266315761652E-04
  5.263641378798E-04  4.263391767119E-04  3.316580082186E-04  2.462522124891E-04
  1.728217296896E-04  1.128626277433E-04  6.676837086034E-05  3.398702754292E-05
  1.321629666347E-05  2.618517481159E-06  3.893761870545E-08  3.212371224646E-06
  9.945874358819E-06  1.826804479533E-05  2.653883745035E-05  3.351717302842E-05
  3.838689713593E-05  4.074461710995E-05  4.055542173961E-05  3.808432676219E-05
  3.381238464424E-05  2.834670428640E-05  2.233315912746E-05  1.637939593621E-05
  1.099402291297E-05  6.545732348117E-06  3.243809214458E-06  1.139214827212E-06
  1.434284196571E-07  6.066471847687E-08  6.281001319784E-07  1.558409065378E-06
  2.579238752879E-06  3.465166762615E-06  4.059055290194E-06  4.281355308660E-06
  4.127607740442E-06  3.655921871628E-06  2.967392332961E-06  2.183104821195E-06
  1.421507000007E-06  7.794946233486E-07  3.196731206628E-07  6.505755895453E-08
  0.000000000000E+00  0.000000000000E+00  0.000000000000E+00  0.000000000000E+00
  0.000000000000E+00  0.000000000000E+00  0.000000000000E+00  0.000000000000E+00
  0.000000000000E+00  0.000000000000E+00  0.000000000000E+00  0.000000000000E+00
  0.000000000000E+00  0.000000000000E+00  0.000000000000E+00  0.000000000000E+00
  0.000000000000E+00  0.000000000000E+00  0.000000000000E+00  0.000000000000E+00
  0.000000000000E+00  0.000000000000E+00  0.000000000000E+00  0.000000000000E+00
  0.000000000000E+00  0.000000000000E+00  0.000000000000E+00  0.000000000000E+00
  0.000000000000E+00  0.000000000000E+00  0.000000000000E+00  0.000000000000E+00
  0.000000000000E+00  0.000000000000E+00  0.000000000000E+00
</data>
</radfunc>
</pseudocore-charge>
<semilocal-potentials set="lj">
<slps n="5" l="s" j="0.5" rc="1.71293614326" eref="-2.67766727322">
<radfunc>
<data npts="291">
 -6.162825631493E+00 -6.163704052897E+00 -6.166329445297E+00 -6.170707923622E+00
 -6.177129039882E+00 -6.185315911693E+00 -6.195739866433E+00 -6.207662309742E+00
 -6.221050148370E+00 -6.236638906916E+00 -6.254179740694E+00 -6.273209013823E+00
 -6.296156501108E+00 -6.320063983754E+00 -6.343887153331E+00 -6.371254282352E+00
 -6.402671276994E+00 -6.432355753790E+00 -6.465616274716E+00 -6.502857965905E+00
 -6.544525129340E+00 -6.581370014823E+00 -6.621625299818E+00 -6.665577071462E+00
 -6.713529430888E+00 -6.765804372213E+00 -6.822741336491E+00 -6.868717105055E+00
 -6.917671148461E+00 -6.969763812367E+00 -7.025159318082E+00 -7.084025091109E+00
 -7.146530947055E+00 -7.212848120031E+00 -7.283148118423E+00 -7.357601393010E+00
 -7.436375802786E+00 -7.519634864723E+00 -7.577710332581E+00 -7.637893586136E+00
 -7.700227191113E+00 -7.764751370947E+00 -7.831503643396E+00 -7.900518434879E+00
 -7.971826672677E+00 -8.045455355338E+00 -8.121427101870E+00 -8.199759680495E+00
 -8.280465518022E+00 -8.363551191134E+00 -8.449016901188E+00 -8.536855934359E+00
 -8.627054109308E+00 -8.719589214782E+00 -8.814430439893E+00 -8.911537800058E+00
 -9.010861561867E+00 -9.112341670404E+00 -9.215907182736E+00 -9.321475711521E+00
 -9.428952882825E+00 -9.538231812393E+00 -9.649192604671E+00 -9.761701878988E+00
 -9.875612327262E+00 -9.990762307621E+00 -1.010697547822E+01 -1.016542155335E+01
 -1.022406047549E+01 -1.028286593222E+01 -1.034181064093E+01 -1.040086634327E+01
 -1.046000380038E+01 -1.051919278922E+01 -1.057840209968E+01 -1.063759953290E+01
 -1.069675190039E+01 -1.075582502439E+01 -1.081478373921E+01 -1.087359189365E+01
 -1.093221235469E+01 -1.099060701217E+01 -1.104873678478E+01 -1.110656162724E+01
 -1.116404053871E+01 -1.122113157250E+01 -1.127779184712E+01 -1.133397755859E+01
 -1.138964399424E+01 -1.144474554787E+01 -1.149923573638E+01 -1.155306721788E+01
 -1.160619181140E+01 -1.165856051810E+01 -1.171012354419E+01 -1.176083032549E+01
 -1.181062955375E+01 -1.185946920469E+01 -1.190729656800E+01 -1.195405827912E+01
 -1.199970035303E+01 -1.204416822001E+01 -1.208740676357E+01 -1.212936036035E+01
 -1.216997292234E+01 -1.220918794121E+01 -1.224694853506E+01 -1.228319749736E+01
 -1.231787734831E+01 -1.235093038861E+01 -1.238229875556E+01 -1.241192448169E+01
 -1.243974955565E+01 -1.246571598559E+01 -1.248976586478E+01 -1.251184143958E+01
 -1.253188517951E+01 -1.254983984936E+01 -1.256564858323E+01 -1.257925496026E+01
 -1.259060308183E+01 -1.259963764996E+01 -1.260630404668E+01 -1.261054841395E+01
 -1.261231773373E+01 -1.261155990788E+01 -1.260822383731E+01 -1.260225949997E+01
 -1.259361802705E+01 -1.258225177700E+01 -1.256811440661E+01 -1.255116093870E+01
 -1.253134782594E+01 -1.250863301013E+01 -1.248297597660E+01 -1.245433780336E+01
 -1.242268120482E+01 -1.238797056992E+01 -1.235017199490E+01 -1.230925331111E+01
 -1.226518410858E+01 -1.221793575652E+01 -1.216748142232E+01 -1.211379609115E+01
 -1.205685658903E+01 -1.199664161274E+01 -1.193313177099E+01 -1.186630964219E+01