<?xml version="1.0" encoding="UTF-8" ?>
<psml version="1.1" energy_unit="hartree" length_unit="bohr"
 uuid="e8af9580-53b4-11e8-635b-a8ebbfef7c96"
 xmlns="http://esl.cecam.org/PSML/ns/1.1">
<provenance creator="ONCVPSP-3.3.0+psml-3.3.0-73 (fully-relativistic)"
 date="2018-05-09">
<annotation action="semilocal-pseudopotential-generation"
 action-cont="projectors-generation" />
<input-file name="oncvpsp-input">
<![CDATA[# atsym z nc nv iexc psfile
Ta 73 9 5 -116133 upf
# n l f
1 0 2.0
2 0 2.0
2 1 6.0
3 0 2.0
3 1 6.0
3 2 10.0
4 0 2.0
4 1 6.0
4 2 10.0
4 3 14.0
5 0 2.0
5 1 6.0
5 2 3.0
6 0 2.0
# lmax
3
# l rc ep ncon nbas qcut
0 2.30 0.0 4 7 5.2
1 1.85 0.0 4 7 6.6
2 2.05 0.0 4 9 6.6
3 1.6 0.0 4 8 11.4
# lloc lpopt rc5 dvloc0
4 5 1.6 0.0
# l nproj debl
0 2 2.0
1 2 1.5
2 2 1.8
3 2 1.0
# icmod fcfact
3 5 1.36
# epsh1 epsh2 depsh
-12.0 12.0 0.02
# rlmax drl
6.0 0.01
 0
]]>
</input-file>
</provenance>
<pseudo-atom-spec atomic-label="Ta" atomic-number="73" z-pseudo="27"
 flavor="Hamann&apos;s oncvpsp" relativity="dirac" spin-dft="no"
 core-corrections="yes">
<annotation pseudo-energy="-301.991357440" />
<exchange-correlation>
<annotation oncvpsp-xc-code="-116133" oncvpsp-xc-type="libxc-interface" />
<libxc-info number-of-functionals="2">
<functional name="Perdew, Burke &amp; Ernzerhof SOL (GGA)" type="exchange"
 id="116" />
<functional name="Perdew, Burke &amp; Ernzerhof SOL (GGA)" type="correlation"
 id="133" />
</libxc-info>
</exchange-correlation>
<valence-configuration total-valence-charge="27">
<shell n="4" l="f" occupation="14" />
<shell n="5" l="s" occupation="2" />
<shell n="5" l="p" occupation="6" />
<shell n="5" l="d" occupation="3" />
<shell n="6" l="s" occupation="2" />
</valence-configuration>
</pseudo-atom-spec>
<grid npts="458">
<annotation type="sampled from oncvpsp log grid"
 recipe="r(i:1..N) = r1*exp(a*(i-1)) + r=0; resampled"
 recipe-cont="r1: scale; a: step" scale="0.684931506849E-05"
 step="0.119285708653E-01" delta="0.500000000000E-02" rmax="44.4652856571" />
<grid-data>
  0.000000000000E+00  5.017305651402E-03  1.002167429467E-02  1.503410950261E-02
  2.025771802601E-02  2.541091241664E-02  3.075448503181E-02  3.591328416708E-02
  4.094876041219E-02  4.613663167149E-02  5.136537901594E-02  5.650860641260E-02
  6.216682636963E-02  6.758063756162E-02  7.259477435141E-02  7.798093438119E-02
  8.376671986784E-02  8.891480333121E-02  9.437927453650E-02  1.001795778466E-01
  1.063363526242E-01  1.115331093606E-01  1.169838364460E-01  1.227009456482E-01
  1.286974553096E-01  1.349870199913E-01  1.415839615656E-01  1.467423931104E-01
  1.520887655471E-01  1.576299262629E-01  1.633729721210E-01  1.693252585498E-01
  1.754944089633E-01  1.818883245250E-01  1.885151942671E-01  1.953835055789E-01
  2.025020550769E-01  2.098799598710E-01  2.149473016221E-01  2.201369892725E-01
  2.254519767415E-01  2.308952892679E-01  2.364700251320E-01  2.421793574188E-01
  2.480265358243E-01  2.540148885053E-01  2.601478239733E-01  2.664288330354E-01
  2.728614907802E-01  2.794494586136E-01  2.861964863423E-01  2.931064143086E-01
  3.001831755756E-01  3.074307981667E-01  3.148534073577E-01  3.224552280249E-01
  3.302405870504E-01  3.382139157841E-01  3.463797525668E-01  3.547427453128E-01
  3.633076541556E-01  3.720793541575E-01  3.810628380843E-01  3.902632192470E-01
  3.996857344125E-01  4.093357467842E-01  4.192187490545E-01  4.242493740432E-01
  4.293403665317E-01  4.344924509301E-01  4.397063603412E-01  4.449828366653E-01
  4.503226307053E-01  4.557265022738E-01  4.611952203011E-01  4.667295629447E-01
  4.723303177000E-01  4.779982815124E-01  4.837342608906E-01  4.895390720212E-01
  4.954135408855E-01  5.013585033761E-01  5.073748054166E-01  5.134633030816E-01
  5.196248627186E-01  5.258603610712E-01  5.321706854041E-01  5.385567336290E-01
  5.450194144325E-01  5.515596474057E-01  5.581783631746E-01  5.648765035327E-01
  5.716550215750E-01  5.785148818339E-01  5.854570604160E-01  5.924825451409E-01
  5.995923356826E-01  6.067874437108E-01  6.140688930354E-01  6.214377197518E-01
  6.288949723888E-01  6.364417120575E-01  6.440790126022E-01  6.518079607534E-01
  6.596296562824E-01  6.675452121578E-01  6.755557547037E-01  6.836624237601E-01
  6.918663728453E-01  7.001687693194E-01  7.085707945512E-01  7.170736440859E-01
  7.256785278149E-01  7.343866701487E-01  7.431993101905E-01  7.521177019127E-01
  7.611431143357E-01  7.702768317077E-01  7.795201536882E-01  7.888743955325E-01
  7.983408882789E-01  8.079209789382E-01  8.176160306855E-01  8.274274230537E-01
  8.373565521303E-01  8.474048307559E-01  8.575736887250E-01  8.678645729897E-01
  8.782789478655E-01  8.888182952399E-01  8.994841147828E-01  9.102779241602E-01
  9.212012592501E-01  9.322556743611E-01  9.434427424535E-01  9.547640553629E-01
  9.662212240273E-01  9.778158787156E-01  9.895496692602E-01  1.001424265291E+00
  1.013441356475E+00  1.025602652752E+00  1.037909884586E+00  1.050364803201E+00
  1.062969180839E+00  1.075724811009E+00  1.088633508741E+00  1.101697110846E+00
  1.114917476176E+00  1.128296485890E+00  1.141836043721E+00  1.155538076246E+00
  1.169404533161E+00  1.183437387559E+00  1.197638636209E+00  1.212010299844E+00
  1.226554423442E+00  1.241273076523E+00  1.256168353441E+00  1.271242373683E+00
  1.286497282167E+00  1.301935249553E+00  1.317558472548E+00  1.333369174218E+00
  1.349369604309E+00  1.365562039560E+00  1.381948784035E+00  1.398532169444E+00
  1.415314555477E+00  1.432298330143E+00  1.449485910104E+00  1.466879741026E+00
  1.484482297918E+00  1.502296085493E+00  1.520323638519E+00  1.538567522181E+00
  1.557030332447E+00  1.575714696437E+00  1.594623272794E+00  1.613758752067E+00
  1.633123857092E+00  1.652721343377E+00  1.672553999498E+00  1.692624647492E+00
  1.712936143262E+00  1.733491376981E+00  1.754293273505E+00  1.775344792787E+00
  1.796648930300E+00  1.818208717464E+00  1.840027222073E+00  1.862107548738E+00
  1.884452839323E+00  1.907066273395E+00  1.929951068676E+00  1.953110481500E+00
  1.976547807278E+00  2.000266380965E+00  2.024269577537E+00  2.048560812467E+00
  2.073143542217E+00  2.098021264723E+00  2.123197519900E+00  2.148675890139E+00
  2.174460000820E+00  2.200553520830E+00  2.226960163080E+00  2.253683685037E+00
  2.280727889258E+00  2.308096623929E+00  2.335793783416E+00  2.363823308817E+00
  2.392189188523E+00  2.420895458785E+00  2.449946204290E+00  2.479345558742E+00
  2.509097705447E+00  2.539206877912E+00  2.569677360447E+00  2.600513488772E+00
  2.631719650638E+00  2.663300286445E+00  2.695259889883E+00  2.727603008561E+00
  2.760334244664E+00  2.793458255600E+00  2.826979754667E+00  2.860903511723E+00
  2.895234353864E+00  2.929977166110E+00  2.965136892104E+00  3.000718534809E+00
  3.036727157226E+00  3.073167883113E+00  3.110045897711E+00  3.147366448483E+00
  3.185134845865E+00  3.223356464015E+00  3.262036741583E+00  3.301181182482E+00
  3.340795356672E+00  3.380884900952E+00  3.421455519764E+00  3.462512986001E+00
  3.504063141833E+00  3.546111899535E+00  3.588665242329E+00  3.631729225237E+00
  3.675309975940E+00  3.719413695651E+00  3.764046659999E+00  3.809215219919E+00
  3.854925802558E+00  3.901184912189E+00  3.947999131135E+00  3.995375120709E+00
  4.043319622157E+00  4.091839457623E+00  4.140941531115E+00  4.190632829488E+00
  4.240920423442E+00  4.291811468523E+00  4.343313206145E+00  4.395432964619E+00
  4.448178160195E+00  4.501556298117E+00  4.555574973694E+00  4.610241873379E+00
  4.665564775859E+00  4.721551553170E+00  4.778210171808E+00  4.835548693869E+00
  4.893575278196E+00  4.952298181534E+00  5.011725759713E+00  5.071866468829E+00
  5.132728866455E+00  5.194321612852E+00  5.256653472207E+00  5.319733313873E+00
  5.383570113640E+00  5.448172955003E+00  5.513551030463E+00  5.579713642829E+00
  5.646670206543E+00  5.714430249021E+00  5.783003412010E+00  5.852399452954E+00
  5.922628246389E+00  5.993699785346E+00  6.065624182770E+00  6.138411672963E+00
  6.212072613039E+00  6.286617484395E+00  6.362056894208E+00  6.438401576939E+00
  6.515662395862E+00  6.593850344612E+00  6.672976548748E+00  6.753052267332E+00
  6.834088894540E+00  6.916097961275E+00  6.999091136810E+00  7.083080230452E+00
  7.168077193217E+00  7.254094119536E+00  7.341143248970E+00  7.429236967958E+00
  7.518387811574E+00  7.608608465312E+00  7.699911766896E+00  7.792310708099E+00
  7.885818436596E+00  7.980448257835E+00  8.076213636929E+00  8.173128200572E+00
  8.271205738979E+00  8.370460207847E+00  8.470905730341E+00  8.572556599105E+00
  8.675427278295E+00  8.779532405634E+00  8.884886794502E+00  8.991505436036E+00
  9.099403501268E+00  9.208596343283E+00  9.319099499403E+00  9.430928693396E+00
  9.544099837716E+00  9.658629035769E+00  9.774532584198E+00  9.891826975209E+00
  1.001052889891E+01  1.013065524570E+01  1.025222310865E+01  1.037524978595E+01
  1.049975278338E+01  1.062574981678E+01  1.075325881458E+01  1.088229792036E+01
  1.101288549540E+01  1.114504012135E+01  1.127878060280E+01  1.141412597004E+01
  1.155109548168E+01  1.168970862746E+01  1.182998513099E+01  1.197194495256E+01
  1.211560829199E+01  1.226099559149E+01  1.240812753859E+01  1.255702506906E+01
  1.270770936988E+01  1.286020188232E+01  1.301452430491E+01  1.317069859657E+01
  1.332874697973E+01  1.348869194348E+01  1.365055624681E+01  1.381436292177E+01
  1.398013527683E+01  1.414789690015E+01  1.431767166295E+01  1.448948372291E+01
  1.466335752758E+01  1.483931781791E+01  1.501738963173E+01  1.519759830731E+01
  1.537996948700E+01  1.556452912084E+01  1.575130347029E+01  1.594031911194E+01
  1.613160294128E+01  1.632518217657E+01  1.652108436269E+01  1.671933737505E+01
  1.691996942355E+01  1.712300905663E+01  1.732848516531E+01  1.753642698729E+01
  1.774686411114E+01  1.795982648047E+01  1.817534439824E+01  1.839344853102E+01
  1.861416991339E+01  1.883753995235E+01  1.906359043178E+01  1.929235351696E+01
  1.952386175916E+01  1.975814810027E+01  1.999524587748E+01  2.023518882801E+01
  2.047801109394E+01  2.072374722707E+01  2.097243219379E+01  2.122410138012E+01
  2.147879059668E+01  2.173653608384E+01  2.199737451685E+01  2.226134301105E+01
  2.252847912718E+01  2.279882087671E+01  2.307240672723E+01  2.334927560796E+01
  2.362946691525E+01  2.391302051823E+01  2.419997676445E+01  2.449037648563E+01
  2.478426100345E+01  2.508167213550E+01  2.538265220112E+01  2.568724402754E+01
  2.599549095587E+01  2.630743684734E+01  2.662312608950E+01  2.694260360258E+01
  2.726591484581E+01  2.759310582396E+01  2.792422309385E+01  2.825931377097E+01
  2.859842553622E+01  2.894160664266E+01  2.928890592237E+01  2.964037279344E+01
  2.999605726696E+01  3.035600995416E+01  3.072028207361E+01  3.108892545850E+01
  3.146199256400E+01  3.183953647477E+01  3.222161091246E+01  3.260827024341E+01
  3.299956948633E+01  3.339556432017E+01  3.379631109201E+01  3.420186682512E+01
  3.461228922702E+01  3.502763669774E+01  3.544796833812E+01  3.587334395817E+01
  3.630382408567E+01  3.673946997470E+01  3.718034361440E+01  3.762650773777E+01
  3.807802583062E+01  3.853496214059E+01  3.899738168628E+01  3.946535026651E+01
  3.993893446971E+01  4.041820168335E+01  4.090322010355E+01  4.139405874479E+01
  4.189078744973E+01  4.239347689912E+01  4.290219862191E+01  4.341702500538E+01
  4.393802930544E+01  4.446528565711E+01
</grid-data>
</grid>
<valence-charge total-charge="27" is-unscreening-charge="yes"
 rescaled-to-z-pseudo="no">
<radfunc>
<data npts="458">
  7.262948293870E+00  7.263314866762E+00  7.264410595965E+00  7.266238513429E+00
  7.268920581636E+00  7.272343103901E+00  7.276706625031E+00  7.281707165764E+00
  7.287337405375E+00  7.293917454697E+00  7.301358679767E+00  7.309484045606E+00
  7.319368391170E+00  7.329782974808E+00  7.340297750444E+00  7.352569709097E+00
  7.366947660301E+00  7.380855183755E+00  7.396857164779E+00  7.415363036303E+00
  7.436894164598E+00  7.456742220025E+00  7.479386384686E+00  7.505365519255E+00
  7.535351996464E+00  7.570188249808E+00  7.610933202874E+00  7.646159743772E+00
  7.686140969809E+00  7.731695888869E+00  7.783799876133E+00  7.843614079959E+00
  7.912519752872E+00  7.992158103100E+00  8.084476251211E+00  8.191779826955E+00
  8.316792637596E+00  8.462723660991E+00  8.573467768401E+00  8.696441785640E+00
  8.833054748438E+00  8.984865301118E+00  9.153593803063E+00  9.341134567018E+00
  9.549568006788E+00  9.781172412669E+00  1.003843500455E+01  1.032406183447E+01
  1.064098602229E+01  1.099237370987E+01  1.138162701142E+01  1.181238312103E+01
  1.228850861514E+01  1.281408785976E+01  1.339340430384E+01  1.403091331628E+01
  1.473120511094E+01  1.549895621060E+01  1.633886783735E+01  1.725558959573E+01
  1.825362685172E+01  1.933723032209E+01  2.051026659429E+01  2.177606861824E+01
  2.313726567054E+01  2.459559291078E+01  2.615168145089E+01  2.696622587127E+01
  2.780483085876E+01  2.866716109931E+01  2.955276723052E+01  3.046107782915E+01
  3.139139139459E+01  3.234286839460E+01  3.331452344707E+01  3.430521771973E+01
  3.531365163744E+01  3.633835799488E+01  3.737769558044E+01  3.842984342453E+01
  3.949279579291E+01  4.056435805259E+01  4.164214354337E+01  4.272357159375E+01
  4.380586682324E+01  4.488605987621E+01  4.596098973288E+01  4.702730774249E+01
  4.808148352025E+01  4.911981284443E+01  5.013842768179E+01  5.113330845831E+01
  5.210029867824E+01  5.303512197682E+01  5.393340167084E+01  5.479068284669E+01
  5.560245699675E+01  5.636418918288E+01  5.707134766952E+01  5.771943592945E+01
  5.830402688199E+01  5.882079917753E+01  5.926557529362E+01  5.963436115696E+01
  5.992338695416E+01  6.012914874123E+01  6.024845041043E+01  6.027844552273E+01
  6.021667846703E+01  6.006112436441E+01  5.981022709851E+01  5.946293482351E+01
  5.901873227978E+01  5.847766923742E+01  5.784038438866E+01  5.710812402557E+01
  5.628275486886E+01  5.536677045883E+01  5.436329058209E+01  5.327605328604E+01
  5.210939912995E+01  5.086824743409E+01  4.955806441718E+01  4.818482325541E+01
  4.675495625134E+01  4.527529946551E+01  4.375303033406E+01  4.219559896815E+01
  4.061065400100E+01  3.900596401121E+01  3.738933570072E+01  3.576853013783E+01
  3.415117848393E+01  3.254469870194E+01  3.095621479044E+01  2.939248009529E+01
  2.785980621774E+01  2.636399896196E+01  2.491030264519E+01  2.350335393106E+01
  2.214714614380E+01  2.084500478219E+01  1.959957468347E+01  1.841281899626E+01
  1.728602981812E+01  1.621985004652E+01  1.521430569433E+01  1.426884764282E+01
  1.338240155837E+01  1.255342449400E+01  1.177996654207E+01  1.105973580771E+01
  1.039016493780E+01  9.768477469854E+00  9.191752357142E+00  8.656985177010E+00
  8.161144730290E+00  7.701223981617E+00  7.274284560293E+00  6.877494325708E+00
  6.508157785634E+00  6.163739425944E+00  5.841880253551E+00  5.540408059905E+00
  5.257342072252E+00  4.990892769413E+00  4.739457696912E+00  4.501614125257E+00
  4.276109360484E+00  4.061849445596E+00  3.857886894944E+00  3.663407991128E+00
  3.477720055885E+00  3.300238991719E+00  3.130477287056E+00  2.968032589911E+00
  2.812576886485E+00  2.663846272928E+00  2.521631280448E+00  2.385767704545E+00
  2.256125229977E+00  2.132586509277E+00  2.015024442704E+00  1.903298995627E+00
  1.797260707405E+00  1.696749471362E+00  1.601595329146E+00  1.511619155264E+00
  1.426633521508E+00  1.346443700487E+00  1.270848789575E+00  1.199642934755E+00
  1.132617032164E+00  1.069562033849E+00  1.010273069397E+00  9.545500939935E-01
  9.021984713779E-01  8.530294689996E-01  8.068606642019E-01  7.635162543534E-01
  7.228272656508E-01  6.846316643868E-01  6.487744034044E-01  6.151074495908E-01
  5.834897862223E-01  5.537873647728E-01  5.258730187398E-01  4.996263507741E-01
  4.749335973259E-01  4.516874785208E-01  4.297870624402E-01  4.091377070657E-01
  3.896510115154E-01  3.712445698007E-01  3.538417023155E-01  3.373711941402E-01
  3.217670259394E-01  3.069681046812E-01  2.929179952113E-01  2.795646542208E-01
  2.668601679887E-01  2.547604951285E-01  2.432252154193E-01  2.322172856640E-01
  2.217028033785E-01  2.116507789841E-01  2.020329170452E-01  1.928234069800E-01
  1.839987235549E-01  1.755374373741E-01  1.674200354799E-01  1.596287520965E-01
  1.521474094724E-01  1.449612687122E-01  1.380568904291E-01  1.314220049999E-01
  1.250453921622E-01  1.189167696575E-01  1.130266905953E-01  1.073664491884E-01
  1.019279944936E-01  9.670385177612E-02  9.168705110858E-02  8.687106280736E-02
  8.224973930932E-02  7.781726309042E-02  7.356810023173E-02  6.949695924378E-02
  6.559875476776E-02  6.186857578155E-02  5.830165794994E-02  5.489335977123E-02
  5.163914218676E-02  4.853455133569E-02  4.557520415428E-02  4.275677653706E-02
  4.007499379645E-02  3.752562317686E-02  3.510446819985E-02  3.280736462964E-02
  3.063017791565E-02  2.856880186766E-02  2.661915849758E-02  2.477719885913E-02
  2.303890477641E-02  2.140029135686E-02  1.985741019179E-02  1.840635315334E-02
  1.704325669936E-02  1.576430659844E-02  1.456574298570E-02  1.344386565851E-02
  1.239503951838E-02  1.141570006439E-02  1.050235884258E-02  9.651608757566E-03
  8.860129156344E-03  8.124690599795E-03  7.442159245797E-03  6.809500777565E-03
  6.223783822346E-03  5.682182818046E-03  5.181980298277E-03  4.720568579304E-03
  4.295450844767E-03  3.904241635729E-03  3.544666763991E-03  3.214562675642E-03
  2.911875299395E-03  2.634658420130E-03  2.381071622537E-03  2.149377852618E-03
  1.937940646414E-03  1.745221075607E-03  1.569774458991E-03  1.410246887123E-03
  1.265371605169E-03  1.133965296047E-03  1.014924302634E-03  9.072208237687E-04
  8.098991173228E-04  7.220717336892E-04  6.429158050214E-04  5.716694274569E-04
  5.076281127593E-04  4.501413383065E-04  3.986092595045E-04  3.524795292187E-04
  3.112442212204E-04  2.744369044844E-04  2.416298572089E-04  2.124314115088E-04
  1.864834313369E-04  1.634589220633E-04  1.430597685913E-04  1.250145985948E-04
  1.090767670677E-04  9.502245812697E-05  8.264889985805E-05  7.177268792495E-05
  6.222821364894E-05  5.386619228554E-05  4.655228727710E-05  4.016582632184E-05
  3.459860516912E-05  2.975377512213E-05  2.554481029951E-05  2.189455077511E-05
  1.873431778132E-05  1.600309722656E-05  1.364678784258E-05  1.161751034506E-05
  9.872974061864E-06  8.375897559610E-06  7.093479881437E-06  5.996919098218E-06
  5.060974972054E-06  4.263572634955E-06  3.585444296783E-06  3.009806114299E-06
  2.522067476692E-06  2.109570091354E-06  1.761354385763E-06  1.467950876049E-06
  1.221194288934E-06  1.014058360110E-06  8.405093676306E-07  6.953765925143E-07
  5.742380295724E-07  4.733197985921E-07  3.894078287839E-07  3.197705071942E-07
  2.620910941397E-07  2.144088152700E-07  1.750676403561E-07  1.426718531933E-07
  1.160476050194E-07  9.420972562220E-08  7.633314191968E-08  6.172832339807E-08
  4.982023758609E-08  4.013035696419E-08  3.226131162671E-08  2.588382992285E-08
  2.072565250605E-08  1.656214403478E-08  1.320836150805E-08  1.051236920110E-08
  8.349617698942E-09  6.618228906423E-09  5.235050430276E-09  4.132361653470E-09
  3.255130411827E-09  2.558733678175E-09  2.007068283485E-09  1.570988663933E-09
  1.227018107152E-09  9.562881529351E-10  7.436678403884E-10  5.770505266290E-10
  4.467711591577E-10  3.451312787868E-10  2.660127640318E-10  2.045644910450E-10
  1.569487548536E-10  1.201365476144E-10  9.174267885724E-11  6.989330448070E-11
  5.311975181220E-11  4.027362733027E-11  3.045910613051E-11  2.297905749178E-11
  1.729228428041E-11  1.297966700085E-11  9.717424396698E-12  7.256047147343E-12
  5.403742488044E-12  4.013456514636E-12  2.972726745008E-12  2.195767903054E-12
  1.617315284911E-12  1.187847777040E-12  8.698910318654E-13  6.351641073786E-13
  4.623830349023E-13  3.355742844164E-13  2.200149564091E-13  1.589463656361E-13
  1.144585975896E-13  5.214037881334E-15  3.475320785321E-15  2.305818842543E-15
  1.522794144514E-15  1.000964804811E-15  6.548375622974E-16  4.263446317946E-16
  2.762329157781E-16  1.780951681151E-16  1.142523881234E-16  7.292709689281E-17
  4.631234661182E-17  2.925918913978E-17  1.838901709674E-17  1.149630413813E-17
  7.148812525196E-18  4.421377639015E-18  2.719575490219E-18  1.663549994085E-18
  1.011889072251E-18  6.120163080488E-19  3.680412524452E-19  2.200409137864E-19
  1.307836549771E-19  7.727088399742E-20  4.537948774709E-20  2.648824216460E-20
  1.536613661939E-20  8.858537383624E-21  5.074725109550E-21  2.888571903130E-21
  1.633580710754E-21  9.178061255579E-22  5.122477088744E-22  2.839835426514E-22
  1.563706807648E-22  8.551277092493E-23  4.643913979238E-23  2.504254350715E-23
  1.340839546189E-23  7.127570819415E-24  3.761277001753E-24  0.000000000000E+00
  0.000000000000E+00  0.000000000000E+00  0.000000000000E+00  0.000000000000E+00
  0.000000000000E+00  0.000000000000E+00
</data>
</radfunc>
</valence-charge>
<pseudocore-charge matching-radius="0.636441712057"
 number-of-continuous-derivatives="4">
<annotation model-charge-form="Teter function with specified parameters" />
<radfunc>
<data npts="291">
  3.110215665511E+02  3.109885501652E+02  3.108898608895E+02  3.107252392925E+02
  3.104837438081E+02  3.101757096905E+02  3.097832946823E+02  3.093341800825E+02
  3.088294977637E+02  3.082413580679E+02  3.075789399759E+02  3.068595574951E+02
  3.059910058428E+02  3.050849025989E+02  3.041807592667E+02  3.031405910468E+02
  3.019444853784E+02  3.008123636412E+02  2.995415732524E+02  2.981158064915E+02
  2.965170196113E+02  2.951000991000E+02  2.935486254535E+02  2.918506247808E+02
  2.899932260855E+02  2.879626305973E+02  2.857440890938E+02  2.839474280721E+02
  2.820292457484E+02  2.799822581942E+02  2.777988888724E+02  2.754712807575E+02
  2.729913135898E+02  2.703506270837E+02  2.675406509919E+02  2.645526430119E+02
  2.613777356055E+02  2.580069928751E+02  2.556466184240E+02  2.531926012417E+02
  2.506423375033E+02  2.479932645501E+02  2.452428756665E+02  2.423887363009E+02
  2.394285018040E+02  2.363599367499E+02  2.331809359037E+02  2.298895468862E+02
  2.264839945795E+02  2.229627073017E+02  2.193243447635E+02  2.155678277999E+02
  2.116923698458E+02  2.076975100994E+02  2.035831482817E+02  1.993495808685E+02
  1.949975386249E+02  1.905282252295E+02  1.859433567193E+02  1.812452014324E+02
  1.764366200568E+02  1.715211053290E+02  1.665028208487E+02  1.613866383981E+02
  1.561781730714E+02  1.508838154357E+02  1.455107598567E+02  1.427971942743E+02
  1.400670280395E+02  1.373213960483E+02  1.345614867508E+02  1.317885423087E+02
  1.290038586162E+02  1.262087851758E+02  1.234047248182E+02  1.205931332576E+02
  1.177755184711E+02  1.149534398933E+02  1.121285074161E+02  1.093023801829E+02
  1.064767651700E+02  1.036534155435E+02  1.008341287847E+02  9.802074457434E+01
  9.521514242954E+01  9.241923908466E+01  8.963498561099E+01  8.686436426942E+01
  8.410938509196E+01  8.137208218887E+01  7.865450977958E+01  7.595873794711E+01
  7.328684811694E+01  7.064092826350E+01  6.802306784885E+01  6.543535250044E+01
  6.287985843679E+01  6.035864665233E+01  5.787375687505E+01  5.542720131307E+01
  5.302095820884E+01  5.065696522268E+01  4.833711266978E+01  4.606323663809E+01
  4.383711201707E+01  4.166044547047E+01  3.953486838915E+01  3.746192986269E+01
  3.544308971163E+01  3.347971162454E+01  3.157305644683E+01  2.972427567048E+01
  2.793440517586E+01  2.620435927876E+01  2.453492513679E+01  2.292675757078E+01
  2.138037435697E+01  1.989615204591E+01  1.847432236361E+01  1.711496924899E+01
  1.581802658030E+01  1.458327664002E+01  1.341034936517E+01  1.229872242520E+01
  1.124772216526E+01  1.025652544659E+01  9.324162409339E+00  8.449520175846E+00
  7.631347504033E+00  6.868260391829E+00  6.158748623791E+00  5.501183240906E+00
  4.893824903704E+00  4.334833107656E+00  3.822276198301E+00  3.354142121918E+00
  2.928349835990E+00  2.542761292324E+00  2.195193894792E+00  1.883433323399E+00
  1.605246607003E+00  1.358395318812E+00  1.140648761891E+00  9.497970066941E-01
  7.836636391915E-01  6.401180768438E-01  5.170873105194E-01  4.125669337508E-01
  3.246313265142E-01  2.514428691070E-01  1.912600726987E-01  1.424445267030E-01
  1.034665791652E-01  7.290968468696E-02  4.947337479411E-02  3.197482774188E-02
  1.934903817552E-02  1.064761133399E-02  5.036231086133E-03  1.790875433768E-03
  2.928765847128E-04  2.294464465951E-05  5.542937491786E-04  1.545026420020E-03
  2.729945487683E-03  3.911972542481E-03  4.953357115720E-03  5.766861321136E-03
  6.307100310435E-03  6.562209577446E-03  6.545996015696E-03  6.290711007411E-03
  5.840561194354E-03  5.246046626566E-03  4.559187541587E-03  3.829671071550E-03
  3.101918793896E-03  2.413046384275E-03  1.791658866186E-03  1.257400212320E-03
  8.211553740505E-04  4.857870815598E-04  2.472796431638E-04  9.615789785562E-05
  1.905156511676E-05  2.832986923312E-07  2.337227076233E-05  7.236326446301E-05
  1.329129354600E-04  1.930887967891E-04  2.438611195362E-04  2.792918037316E-04
  2.964458826847E-04  2.950693526658E-04  2.770903904436E-04  2.460089926600E-04
  2.062423055960E-04  1.624895149416E-04  1.191716803486E-04  7.998928589502E-05
  4.762482853918E-05  2.360100435466E-05  8.288592922813E-06  1.043543110311E-06
  4.413786971705E-07  4.569872322920E-06  1.133852723964E-05  1.876578461122E-05
  2.521153694539E-05  2.953249566981E-05  3.114988539806E-05  3.003126318968E-05
  2.659941516536E-05  2.158987620482E-05  1.588363032020E-05  1.034246796877E-05
  5.671374234369E-06  2.325847857884E-06  4.733397159567E-07  0.000000000000E+00
  0.000000000000E+00  0.000000000000E+00  0.000000000000E+00  0.000000000000E+00
  0.000000000000E+00  0.000000000000E+00  0.000000000000E+00  0.000000000000E+00
  0.000000000000E+00  0.000000000000E+00  0.000000000000E+00  0.000000000000E+00
  0.000000000000E+00  0.000000000000E+00  0.000000000000E+00  0.000000000000E+00
  0.000000000000E+00  0.000000000000E+00  0.000000000000E+00  0.000000000000E+00
  0.000000000000E+00  0.000000000000E+00  0.000000000000E+00  0.000000000000E+00
  0.000000000000E+00  0.000000000000E+00  0.000000000000E+00  0.000000000000E+00
  0.000000000000E+00  0.000000000000E+00  0.000000000000E+00  0.000000000000E+00
  0.000000000000E+00  0.000000000000E+00  0.000000000000E+00  0.000000000000E+00
  0.000000000000E+00  0.000000000000E+00  0.000000000000E+00  0.000000000000E+00
  0.000000000000E+00  0.000000000000E+00  0.000000000000E+00  0.000000000000E+00
  0.000000000000E+00  0.000000000000E+00  0.000000000000E+00  0.000000000000E+00
  0.000000000000E+00  0.000000000000E+00  0.000000000000E+00  0.000000000000E+00
  0.000000000000E+00  0.000000000000E+00  0.000000000000E+00  0.000000000000E+00
  0.000000000000E+00  0.000000000000E+00  0.000000000000E+00  0.000000000000E+00
  0.000000000000E+00  0.000000000000E+00  0.000000000000E+00  0.000000000000E+00
  0.000000000000E+00  0.000000000000E+00  0.000000000000E+00  0.000000000000E+00
  0.000000000000E+00  0.000000000000E+00  0.000000000000E+00
</data>
</radfunc>
</pseudocore-charge>
<semilocal-potentials set="lj">
<slps n="5" l="s" j="0.5" rc="2.30809662393" eref="-2.67766727322">
<radfunc>
<data npts="291">
 -2.980965136939E+01 -2.980969737184E+01 -2.980983484334E+01 -2.981006415153E+01
 -2.981040053818E+01 -2.981082960549E+01 -2.981137620295E+01 -2.981200176770E+01
 -2.981270471605E+01 -2.981352388210E+01 -2.981444646238E+01 -2.981544831932E+01
 -2.981665781744E+01 -2.981791946648E+01 -2.981917821585E+01 -2.982062609149E+01
 -2.982229064241E+01 -2.982386570996E+01 -2.982563310892E+01 -2.982761518702E+01
 -2.982983654151E+01 -2.983180393688E+01 -2.983395659050E+01 -2.983631041448E+01
 -2.983888229177E+01 -2.984169001498E+01 -2.984475217449E+01 -2.984722730581E+01
 -2.984986459874E+01 -2.985267231704E+01 -2.985565862327E+01 -2.985883142230E+01
 -2.986219815927E+01 -2.986576556029E+01 -2.986953930159E+01 -2.987352358903E+01
 -2.987772062613E+01 -2.988212994313E+01 -2.988518562766E+01 -2.988833172180E+01
 -2.989156490216E+01 -2.989488058867E+01 -2.989827272270E+01 -2.990173351141E+01
 -2.990525313410E+01 -2.990881940551E+01 -2.991241739114E+01 -2.991602896889E+01
 -2.991963233150E+01 -2.992320142385E+01 -2.992670530946E+01 -2.993010746076E+01
 -2.993336496833E+01 -2.993642766537E+01 -2.993923716509E+01 -2.994172581089E+01
 -2.994381554196E+01 -2.994541668025E+01 -2.994642664928E+01 -2.994672864000E+01
 -2.994619024449E+01 -2.994466208399E+01 -2.994197646331E+01 -2.993794608770E+01
 -2.993236288104E+01 -2.992499694330E+01 -2.991559568010E+01 -2.991004648994E+01
 -2.990388312785E+01 -2.989706736975E+01 -2.988955948301E+01 -2.988131822202E+01
 -2.987230082621E+01 -2.986246301997E+01 -2.985175901421E+01 -2.984014150930E+01
 -2.982756169881E+01 -2.981396927417E+01 -2.979931242993E+01 -2.978353786985E+01
 -2.976659081413E+01 -2.974841500823E+01 -2.972895273435E+01 -2.970814482648E+01
 -2.968593069056E+01 -2.966224833132E+01 -2.963703438788E+01 -2.961022418014E+01
 -2.958175176825E+01 -2.955155002775E+01 -2.951955074291E+01 -2.948568472084E+01
 -2.944988192918E+01 -2.941207166007E+01 -2.937218272312E+01 -2.933014366998E+01
 -2.928588305308E+01 -2.923932972080E+01 -2.919041315068E+01 -2.913906382209E+01
 -2.908521362826E+01 -2.902879632671E+01 -2.896974802547E+01 -2.890800770036E+01
 -2.884351773678E+01 -2.877622448680E+01 -2.870607883034E+01 -2.863303672703E+01
 -2.855705974365E+01 -2.847811554112E+01 -2.839617830490E+01 -2.831122910334E+01
 -2.822325616036E+01 -2.813225503183E+01 -2.803822867815E+01 -2.794118742987E+01
 -2.784114884703E+01 -2.773813747667E+01 -2.763218451631E+01 -2.752332739298E+01
 -2.741160926865E+01 -2.729707848248E+01 -2.717978793924E+01 -2.705979445084E+01
 -2.693715803579E+01 -2.681194117839E+01 -2.668420804774E+01 -2.655402367533E+01
 -2.642145309009E+01 -2.628656041195E+01 -2.614940790857E+01 -2.601005502570E+01
 -2.586855740962E+01 -2.572496594909E+01 -2.557932587435E+01 -2.543167596009E+01
 -2.528204788617E+01 -2.513046581284E+01 -2.497694622210E+01 -2.482149806336E+01
 -2.466412321709E+01 -2.450481725595E+01 -2.434357044338E+01 -2.418036887199E+01
 -2.401519561999E+01 -2.384803180757E+01 -2.367885747762E+01 -2.350765231295E+01