Ba    ONCVPSP-3.3.0  r_core=   2.20646   1.80147   2.10365   2.51583
56.0000     10.0000      180429    zatom,zion,pspd
8 -116133   3     4   600     0    pspcod,pspxc,lmax,lloc,mmax,r2well
5.99000000  4.80000000  0.00000000    rchrg fchrg qchrg
2     4     3     2    nproj
3     1           extension_switch
4     4     4    nprojso
0                         7.3314929936726D-01  6.5507384605413D+00
1  0.0000000000000D+00  2.7526772528041D-11 -5.5379312247084D-12
2  1.0000000000000D-02 -1.2468331964696D-02  2.7370713665740D-02
3  2.0000000000000D-02 -2.4907019053038D-02  5.4729965325938D-02
4  3.0000000000000D-02 -3.7286559275702D-02  8.2066303010223D-02
5  4.0000000000000D-02 -4.9577735377369D-02  1.0936829466406D-01
6  5.0000000000000D-02 -6.1751754610569D-02  1.3662453772176D-01
7  6.0000000000000D-02 -7.3780385417220D-02  1.6382366822166D-01
8  7.0000000000000D-02 -8.5636090019413D-02  1.9095436931704D-01
9  8.0000000000000D-02 -9.7292151948525D-02  2.1800537904260D-01
10  9.0000000000000D-02 -1.0872279757571D-01  2.4496549720224D-01
11  1.0000000000000D-01 -1.1990331074736D-01  2.7182359125285D-01
12  1.1000000000000D-01 -1.3081013967553D-01  2.9856860106754D-01
13  1.2000000000000D-01 -1.4142099528589D-01  3.2518954247249D-01
14  1.3000000000000D-01 -1.5171494028362D-01  3.5167550946310D-01
15  1.4000000000000D-01 -1.6167246826097D-01  3.7801567501773D-01
16  1.5000000000000D-01 -1.7127557223814D-01  4.0419929044065D-01
17  1.6000000000000D-01 -1.8050780210162D-01  4.3021568318047D-01
18  1.7000000000000D-01 -1.8935431048072D-01  4.5605425308501D-01
19  1.8000000000000D-01 -1.9780188668288D-01  4.8170446706957D-01
20  1.9000000000000D-01 -2.0583897839162D-01  5.0715585219177D-01
21  2.0000000000000D-01 -2.1345570091647D-01  5.3239798714252D-01
22  2.1000000000000D-01 -2.2064383387211D-01  5.5742049218003D-01
23  2.2000000000000D-01 -2.2739680525311D-01  5.8221301755063D-01
24  2.3000000000000D-01 -2.3370966296069D-01  6.0676523045750D-01
25  2.4000000000000D-01 -2.3957903392877D-01  6.3106680065544D-01
26  2.5000000000000D-01 -2.4500307108667D-01  6.5510738476701D-01
27  2.6000000000000D-01 -2.4998138848572D-01  6.7887660943164D-01
28  2.7000000000000D-01 -2.5451498500522D-01  7.0236405341582D-01
29  2.8000000000000D-01 -2.5860615713961D-01  7.2555922882800D-01
30  2.9000000000000D-01 -2.6225840145286D-01  7.4845156159662D-01
31  3.0000000000000D-01 -2.6547630736678D-01  7.7103037138417D-01
32  3.1000000000000D-01 -2.6826544102744D-01  7.9328485112301D-01
33  3.2000000000000D-01 -2.7063222106737D-01  8.1520404637095D-01
34  3.3000000000000D-01 -2.7258378714949D-01  8.3677683469584D-01
35  3.4000000000000D-01 -2.7412786224252D-01  8.5799190530765D-01
36  3.5000000000000D-01 -2.7527260963565D-01  8.7883773916546D-01
37  3.6000000000000D-01 -2.7602648575201D-01  8.9930258979325D-01
38  3.7000000000000D-01 -2.7639808986614D-01  9.1937446504413D-01
39  3.8000000000000D-01 -2.7639601186941D-01  9.3904111005615D-01
40  3.9000000000000D-01 -2.7602867925889D-01  9.5828999164526D-01
41  4.0000000000000D-01 -2.7530420454910D-01  9.7710828438098D-01
42  4.1000000000000D-01 -2.7423023432309D-01  9.9548285858944D-01
43  4.2000000000000D-01 -2.7281380114704D-01  1.0134002705247D+00
44  4.3000000000000D-01 -2.7106117957352D-01  1.0308467549446D+00
45  4.4000000000000D-01 -2.6897774745051D-01  1.0478082203205D+00
46  4.5000000000000D-01 -2.6656785373730D-01  1.0642702469006D+00
47  4.6000000000000D-01 -2.6383469400365D-01  1.0802180878381D+00
48  4.7000000000000D-01 -2.6078019475631D-01  1.0956366735794D+00
49  4.8000000000000D-01 -2.5740490769552D-01  1.1105106196974D+00
50  4.9000000000000D-01 -2.5370791495543D-01  1.1248242383356D+00
51  5.0000000000000D-01 -2.4968674632527D-01  1.1385615534127D+00
52  5.1000000000000D-01 -2.4533730938323D-01  1.1517063197181D+00
53  5.2000000000000D-01 -2.4065383340342D-01  1.1642420460060D+00
54  5.3000000000000D-01 -2.3562882781666D-01  1.1761520221760D+00
55  5.4000000000000D-01 -2.3025305592035D-01  1.1874193506032D+00
56  5.5000000000000D-01 -2.2451552444057D-01  1.1980269816546D+00
57  5.6000000000000D-01 -2.1840348945191D-01  1.2079577534052D+00
58  5.7000000000000D-01 -2.1190247905708D-01  1.2171944355377D+00
59  5.8000000000000D-01 -2.0499633312135D-01  1.2257197773842D+00
60  5.9000000000000D-01 -1.9766726024468D-01  1.2335165600376D+00
61  6.0000000000000D-01 -1.8989591203919D-01  1.2405676524324D+00
62  6.1000000000000D-01 -1.8166147466248D-01  1.2468560712670D+00
63  6.2000000000000D-01 -1.7294177743652D-01  1.2523650446062D+00
64  6.3000000000000D-01 -1.6371341826141D-01  1.2570780789778D+00
65  6.4000000000000D-01 -1.5395190541140D-01  1.2609790297441D+00
66  6.5000000000000D-01 -1.4363181517888D-01  1.2640521745033D+00
67  6.6000000000000D-01 -1.3272696471254D-01  1.2662822892462D+00
68  6.7000000000000D-01 -1.2121059927603D-01  1.2676547269654D+00
69  6.8000000000000D-01 -1.0905559303891D-01  1.2681554983911D+00
70  6.9000000000000D-01 -9.6234662398090D-02  1.2677713544984D+00
71  7.0000000000000D-01 -8.2720590720677D-02  1.2664898704113D+00
72  7.1000000000000D-01 -6.8486463294818D-02  1.2642995303014D+00
73  7.2000000000000D-01 -5.3505911178393D-02  1.2611898128660D+00
74  7.3000000000000D-01 -3.7753362544157D-02  1.2571512769436D+00
75  7.4000000000000D-01 -2.1204300035828D-02  1.2521756468152D+00
76  7.5000000000000D-01 -3.8355225739361D-03  1.2462558967225D+00
77  7.6000000000000D-01  1.4374590017265D-02  1.2393863341212D+00
78  7.7000000000000D-01  3.3445811249196D-02  1.2315626811818D+00
79  7.8000000000000D-01  5.3395802810122D-02  1.2227821540417D+00
80  7.9000000000000D-01  7.4239851782825D-02  1.2130435393070D+00
81  8.0000000000000D-01  9.5990612040883D-02  1.2023472673054D+00
82  8.1000000000000D-01  1.1865785164288D-01  1.1906954815898D+00
83  8.2000000000000D-01  1.4224820804969D-01  1.1780921041994D+00
84  8.3000000000000D-01  1.6676495298380D-01  1.1645428961918D+00
85  8.4000000000000D-01  1.9220776873220D-01  1.1500555129717D+00
86  8.5000000000000D-01  2.1857253766515D-01  1.1346395539559D+00
87  8.6000000000000D-01  2.4585114670140D-01  1.1183066061287D+00
88  8.7000000000000D-01  2.7403130839768D-01  1.1010702810673D+00
89  8.8000000000000D-01  3.0309640027512D-01  1.0829462450350D+00
90  8.9000000000000D-01  3.3302532391931D-01  1.0639522417685D+00
91  9.0000000000000D-01  3.6379238530260D-01  1.0441081076132D+00
92  9.1000000000000D-01  3.9536719767904D-01  1.0234357786950D+00
93  9.2000000000000D-01  4.2771460829324D-01  1.0019592898461D+00
94  9.3000000000000D-01  4.6079465002566D-01  9.7970476504405D-01
95  9.4000000000000D-01  4.9456251896800D-01  9.5670039915826D-01
96  9.5000000000000D-01  5.2896857878598D-01  9.3297643084240D-01
97  9.6000000000000D-01  5.6395839258081D-01  9.0856510645064D-01
98  9.7000000000000D-01  5.9947278280890D-01  8.8350063490277D-01
99  9.8000000000000D-01  6.3544791966038D-01  8.5781913346760D-01
100  9.9000000000000D-01  6.7181543813188D-01  8.3155856448203D-01
101  1.0000000000000D+00  7.0850258386002D-01  8.0475866307075D-01
102  1.0100000000000D+00  7.4543238761311D-01  7.7746085597945D-01
103  1.0200000000000D+00  7.8252386815647D-01  7.4970817168549D-01
104  1.0300000000000D+00  8.1969226303600D-01  7.2154514199701D-01
105  1.0400000000000D+00  8.5684928664510D-01  6.9301769540186D-01
106  1.0500000000000D+00  8.9390341476293D-01  6.6417304247559D-01
107  1.0600000000000D+00  9.3076019457701D-01  6.3505955370622D-01
108  1.0700000000000D+00  9.6732257903882D-01  6.0572663013775D-01
109  1.0800000000000D+00  1.0034912842192D+00  5.7622456728366D-01
110  1.0900000000000D+00  1.0391651681804D+00  5.4660441280189D-01
111  1.1000000000000D+00  1.0742416297162D+00  5.1691781846690D-01
112  1.1100000000000D+00  1.1086170251712D+00  4.8721688701130D-01
113  1.1200000000000D+00  1.1421871014067D+00  4.5755401444817D-01
114  1.1300000000000D+00  1.1748474428420D+00  4.2798172852032D-01
115  1.1400000000000D+00  1.2064939303877D+00  3.9855252395260D-01
116  1.1500000000000D+00  1.2370232099750D+00  3.6931869521121D-01
117  1.1600000000000D+00  1.2663331682943D+00  3.4033216749822D-01
118  1.1700000000000D+00  1.2943234132546D+00  3.1164432673331D-01
119  1.1800000000000D+00  1.3208957566179D+00  2.8330584928917D-01
120  1.1900000000000D+00  1.3459546962099D+00  2.5536653225916D-01
121  1.2000000000000D+00  1.3694078950507D+00  2.2787512504882D-01
122  1.2100000000000D+00  1.3911666547314D+00  2.0087916308490D-01
123  1.2200000000000D+00  1.4111463803586D+00  1.7442480443459D-01
124  1.2300000000000D+00  1.4292670343743D+00  1.4855667012944D-01
125  1.2400000000000D+00  1.4454535765909D+00  1.2331768897598D-01
126  1.2500000000000D+00  1.4596363878398D+00  9.8748947616685D-02
127  1.2600000000000D+00  1.4717516746229D+00  7.4889546606707D-02
128  1.2700000000000D+00  1.4817418522844D+00  5.1776463231543D-02
129  1.2800000000000D+00  1.4895559043187D+00  2.9444421762735D-02
130  1.2900000000000D+00  1.4951497154211D+00  7.9257718500757D-03
131  1.3000000000000D+00  1.4984863761206D+00 -1.2749624319502D-02
132  1.3100000000000D+00  1.4995364569797D+00 -3.2554495507684D-02
133  1.3200000000000D+00  1.4982782502781D+00 -5.1464254947414D-02
134  1.3300000000000D+00  1.4946979775356D+00 -6.9457083421206D-02
135  1.3400000000000D+00  1.4887899612725D+00 -8.6514001424661D-02
136  1.3500000000000D+00  1.4805567594114D+00 -1.0261892994774D-01
137  1.3600000000000D+00  1.4700092613048D+00 -1.1775873957031D-01
138  1.3700000000000D+00  1.4571667442093D+00 -1.3192328752185D-01
139  1.3800000000000D+00  1.4420568893097D+00 -1.4510544243618D-01
140  1.3900000000000D+00  1.4247157569490D+00 -1.5730109668571D-01
141  1.4000000000000D+00  1.4051877202555D+00 -1.6850916605098D-01
142  1.4100000000000D+00  1.3835253573231D+00 -1.7873157675069D-01
143  1.4200000000000D+00  1.3597893018966D+00 -1.8797323980052D-01
144  1.4300000000000D+00  1.3340480526042D+00 -1.9624201269461D-01
145  1.4400000000000D+00  1.3063777417284D+00 -2.0354864866861D-01
146  1.4500000000000D+00  1.2768618636202D+00 -2.0990673355572D-01
147  1.4600000000000D+00  1.2455909642375D+00 -2.1533261063148D-01
148  1.4700000000000D+00  1.2126622926919D+00 -2.1984529367667D-01
149  1.4800000000000D+00  1.1781794161109D+00 -2.2346636860555D-01
150  1.4900000000000D+00  1.1422517998092D+00 -2.2621988419914D-01
151  1.5000000000000D+00  1.1049943538633D+00 -2.2813223223114D-01
152  1.5100000000000D+00  1.0665269488623D+00 -2.2923201774508D-01
153  1.5200000000000D+00  1.0269739022056D+00 -2.2954991984764D-01
154  1.5300000000000D+00  9.8646343786486D-01 -2.2911854381776D-01
155  1.5400000000000D+00  9.4512712167471D-01 -2.2797226509244D-01
156  1.5500000000000D+00  9.0309927491284D-01 -2.2614706588437D-01
157  1.5600000000000D+00  8.6051636891352D-01 -2.2368036518679D-01
158  1.5700000000000D+00  8.1751640335870D-01 -2.2061084288604D-01
159  1.5800000000000D+00  7.7423827142799D-01 -2.1697825886679D-01
160  1.5900000000000D+00  7.3082111448435D-01 -2.1282326783590D-01
161  1.6000000000000D+00  6.8740366960908D-01 -2.0818723079692D-01
162  1.6100000000000D+00  6.4412361286040D-01 -2.0311202395268D-01
163  1.6200000000000D+00  6.0111690141682D-01 -1.9763984593474D-01
164  1.6300000000000D+00  5.5851711775841D-01 -1.9181302421595D-01
165  1.6400000000000D+00  5.1645481874225D-01 -1.8567382152546D-01
166  1.6500000000000D+00  4.7505689292806D-01 -1.7926424318376D-01
167  1.6600000000000D+00  4.3444592867673D-01 -1.7262584608922D-01
168  1.6700000000000D+00  3.9473959645298D-01 -1.6579955030019D-01
169  1.6800000000000D+00  3.5605004748341D-01 -1.5882545384692D-01
170  1.6900000000000D+00  3.1848333219797D-01 -1.5174265172166D-01
171  1.7000000000000D+00  2.8213884013689D-01 -1.4458905955860D-01
172  1.7100000000000D+00  2.4710876475117D-01 -1.3740124295615D-01
173  1.7200000000000D+00  2.1347759412984D-01 -1.3021425278317D-01
174  1.7300000000000D+00  1.8132163118785D-01 -1.2306146745269D-01
175  1.7400000000000D+00  1.5070854163176D-01 -1.1597444192251D-01
176  1.7500000000000D+00  1.2169693907650D-01 -1.0898276553997D-01
177  1.7600000000000D+00  9.4336010905514D-02 -1.0211392932725D-01
178  1.7700000000000D+00  6.8665105106509D-02 -9.5393187938402D-02
179  1.7800000000000D+00  4.4713644087544D-02 -8.8843487682799D-02
180  1.7900000000000D+00  2.2500620140475D-02 -8.2485311319935D-02
181  1.8000000000000D+00  2.0338302877195D-03 -7.6336485583743D-02
182  1.8100000000000D+00 -1.6688895435939D-02 -7.0412361473896D-02
183  1.8200000000000D+00 -3.3679008037968D-02 -6.4725891206223D-02
184  1.8300000000000D+00 -4.8956358754277D-02 -5.9287779662356D-02
185  1.8400000000000D+00 -6.2547734335725D-02 -5.4106748550512D-02
186  1.8500000000000D+00 -7.4486594957828D-02 -4.9189580608425D-02
187  1.8600000000000D+00 -8.4813176503783D-02 -4.4541105201623D-02
188  1.8700000000000D+00 -9.3574207947186D-02 -4.0164257219391D-02
189  1.8800000000000D+00 -1.0082247237665D-01 -3.6060164861026D-02
190  1.8900000000000D+00 -1.0661653177286D-01 -3.2228212573883D-02
191  1.9000000000000D+00 -1.1102032064583D-01 -2.8666130410940D-02
192  1.9100000000000D+00 -1.1410274905878D-01 -2.5370084272847D-02
193  1.9200000000000D+00 -1.1593726960342D-01 -2.2334775499040D-02
194  1.9300000000000D+00 -1.1660142294690D-01 -1.9553546547621D-02
195  1.9400000000000D+00 -1.1617636006605D-01 -1.7018493257061D-02
196  1.9500000000000D+00 -1.1474634664909D-01 -1.4720582257947D-02
197  1.9600000000000D+00 -1.1239825123772D-01 -1.2649773126127D-02
198  1.9700000000000D+00 -1.0922101965228D-01 -1.0795144613963D-02
199  1.9800000000000D+00 -1.0530514001128D-01 -9.1450238326121D-03
200  1.9900000000000D+00 -1.0074209947264D-01 -7.6871180935593D-03
201  2.0000000000000D+00 -9.5623837212601D-02 -6.4086482207337D-03
202  2.0100000000000D+00 -9.0042196295386D-02 -5.2964826616502D-03
203  2.0200000000000D+00 -8.4088377331317D-02 -4.3372716271262D-03
204  2.0300000000000D+00 -7.7852397088647D-02 -3.5175804273798D-03
205  2.0400000000000D+00 -7.1422555324751D-02 -2.8240211492454D-03
206  2.0500000000000D+00 -6.4884911322422D-02 -2.2433822878631D-03
207  2.0600000000000D+00 -5.8322776996910D-02 -1.7627545666756D-03
208  2.0700000000000D+00 -5.1816224185210D-02 -1.3696535265379D-03
209  2.0800000000000D+00 -4.5441613545260D-02 -1.0521369752305D-03
210  2.0900000000000D+00 -3.9271146189351D-02 -7.9891699142606D-04
211  2.1000000000000D+00 -3.3372437972700D-02 -5.9946650666725D-04
212  2.1100000000000D+00 -2.7808124364200D-02 -4.4411835003369D-04
213  2.1200000000000D+00 -2.2635490495012D-02 -3.2415820544268D-04
214  2.1300000000000D+00 -1.7906721831192D-02 -2.3191556960902D-04
215  2.1400000000000D+00 -1.3670186796242D-02 -1.6085778646793D-04
216  2.1500000000000D+00 -9.9562564401549D-03 -1.0549876686359D-04
217  2.1600000000000D+00 -6.7854971309895D-03 -6.1804852499890D-05
218  2.1700000000000D+00 -4.2083117090968D-03 -2.6864143446071D-05
219  2.1800000000000D+00 -2.2801058562888D-03  9.3488149989100D-07
220  2.1900000000000D+00 -1.0310186087555D-03  2.3007483341517D-05
221  2.2000000000000D+00 -3.3113590321424D-04  3.5110957647409D-05
222  2.2100000000000D+00 -2.4798772707828D-05  3.3693903196195D-05
223  2.2200000000000D+00  4.9464722394711D-05  1.9948041525853D-05
224  2.2300000000000D+00  1.5393451610845D-05  3.9497010430086D-06
225  2.2400000000000D+00 -1.8181382727635D-05 -3.8639218688023D-06
226  2.2500000000000D+00 -1.9572071375771D-05 -3.6513226480207D-06
227  2.2600000000000D+00  1.3074910854065D-07  3.9281611689057D-08
228  2.2700000000000D+00  3.4444270674482D-06  9.4048199238898D-07
229  2.2800000000000D+00  2.5105525127022D-06  6.3890731985892D-07
230  2.2900000000000D+00  1.1631514064211D-07 -4.1956741931618D-08
231  2.3000000000000D+00  2.8650252413409D-07 -1.0334606828906D-07
232  2.3100000000000D+00  1.2752863119644D-07 -4.6001628321673D-08
233  2.3200000000000D+00  0.0000000000000D+00  0.0000000000000D+00
234  2.3300000000000D+00  0.0000000000000D+00  0.0000000000000D+00
235  2.3400000000000D+00  0.0000000000000D+00  0.0000000000000D+00
236  2.3500000000000D+00  0.0000000000000D+00  0.0000000000000D+00
237  2.3600000000000D+00  0.0000000000000D+00  0.0000000000000D+00
238  2.3700000000000D+00  0.0000000000000D+00  0.0000000000000D+00
239  2.3800000000000D+00  0.0000000000000D+00  0.0000000000000D+00
240  2.3900000000000D+00  0.0000000000000D+00  0.0000000000000D+00
241  2.4000000000000D+00  0.0000000000000D+00  0.0000000000000D+00
242  2.4100000000000D+00  0.0000000000000D+00  0.0000000000000D+00
243  2.4200000000000D+00  0.0000000000000D+00  0.0000000000000D+00
244  2.4300000000000D+00  0.0000000000000D+00  0.0000000000000D+00
245  2.4400000000000D+00  0.0000000000000D+00  0.0000000000000D+00
246  2.4500000000000D+00  0.0000000000000D+00  0.0000000000000D+00
247  2.4600000000000D+00  0.0000000000000D+00  0.0000000000000D+00
248  2.4700000000000D+00  0.0000000000000D+00  0.0000000000000D+00
249  2.4800000000000D+00  0.0000000000000D+00  0.0000000000000D+00
250  2.4900000000000D+00  0.0000000000000D+00  0.0000000000000D+00
251  2.5000000000000D+00  0.0000000000000D+00  0.0000000000000D+00
252  2.5100000000000D+00  0.0000000000000D+00  0.0000000000000D+00
253  2.5200000000000D+00  0.0000000000000D+00  0.0000000000000D+00
254  2.5300000000000D+00  0.0000000000000D+00  0.0000000000000D+00
255  2.5400000000000D+00  0.0000000000000D+00  0.0000000000000D+00
256  2.5500000000000D+00  0.0000000000000D+00  0.0000000000000D+00
257  2.5600000000000D+00  0.0000000000000D+00  0.0000000000000D+00
258  2.5700000000000D+00  0.0000000000000D+00  0.0000000000000D+00
259  2.5800000000000D+00  0.0000000000000D+00  0.0000000000000D+00
260  2.5900000000000D+00  0.0000000000000D+00  0.0000000000000D+00
261  2.6000000000000D+00  0.0000000000000D+00  0.0000000000000D+00
262  2.6100000000000D+00  0.0000000000000D+00  0.0000000000000D+00
263  2.6200000000000D+00  0.0000000000000D+00  0.0000000000000D+00
264  2.6300000000000D+00  0.0000000000000D+00  0.0000000000000D+00
265  2.6400000000000D+00  0.0000000000000D+00  0.0000000000000D+00
266  2.6500000000000D+00  0.0000000000000D+00  0.0000000000000D+00
267  2.6600000000000D+00  0.0000000000000D+00  0.0000000000000D+00
268  2.6700000000000D+00  0.0000000000000D+00  0.0000000000000D+00
269  2.6800000000000D+00  0.0000000000000D+00  0.0000000000000D+00
270  2.6900000000000D+00  0.0000000000000D+00  0.0000000000000D+00
271  2.7000000000000D+00  0.0000000000000D+00  0.0000000000000D+00
272  2.7100000000000D+00  0.0000000000000D+00  0.0000000000000D+00
273  2.7200000000000D+00  0.0000000000000D+00  0.0000000000000D+00
274  2.7300000000000D+00  0.0000000000000D+00  0.0000000000000D+00
275  2.7400000000000D+00  0.0000000000000D+00  0.0000000000000D+00
276  2.7500000000000D+00  0.0000000000000D+00  0.0000000000000D+00
277  2.7600000000000D+00  0.0000000000000D+00  0.0000000000000D+00
278  2.7700000000000D+00  0.0000000000000D+00  0.0000000000000D+00
279  2.7800000000000D+00  0.0000000000000D+00  0.0000000000000D+00
280  2.7900000000000D+00  0.0000000000000D+00  0.0000000000000D+00
281  2.8000000000000D+00  0.0000000000000D+00  0.0000000000000D+00
282  2.8100000000000D+00  0.0000000000000D+00  0.0000000000000D+00
283  2.8200000000000D+00  0.0000000000000D+00  0.0000000000000D+00
284  2.8300000000000D+00  0.0000000000000D+00  0.0000000000000D+00
285  2.8400000000000D+00  0.0000000000000D+00  0.0000000000000D+00
286  2.8500000000000D+00  0.0000000000000D+00  0.0000000000000D+00
287  2.8600000000000D+00  0.0000000000000D+00  0.0000000000000D+00
288  2.8700000000000D+00  0.0000000000000D+00  0.0000000000000D+00
289  2.8800000000000D+00  0.0000000000000D+00  0.0000000000000D+00
290  2.8900000000000D+00  0.0000000000000D+00  0.0000000000000D+00
291  2.9000000000000D+00  0.0000000000000D+00  0.0000000000000D+00
292  2.9100000000000D+00  0.0000000000000D+00  0.0000000000000D+00
293  2.9200000000000D+00  0.0000000000000D+00  0.0000000000000D+00
294  2.9300000000000D+00  0.0000000000000D+00  0.0000000000000D+00
295  2.9400000000000D+00  0.0000000000000D+00  0.0000000000000D+00
296  2.9500000000000D+00  0.0000000000000D+00  0.0000000000000D+00
297  2.9600000000000D+00  0.0000000000000D+00  0.0000000000000D+00
298  2.9700000000000D+00  0.0000000000000D+00  0.0000000000000D+00
299  2.9800000000000D+00  0.0000000000000D+00  0.0000000000000D+00
300  2.9900000000000D+00  0.0000000000000D+00  0.0000000000000D+00
301  3.0000000000000D+00  0.0000000000000D+00  0.0000000000000D+00
302  3.0100000000000D+00  0.0000000000000D+00  0.0000000000000D+00
303  3.0200000000000D+00  0.0000000000000D+00  0.0000000000000D+00
304  3.0300000000000D+00  0.0000000000000D+00  0.0000000000000D+00
305  3.0400000000000D+00  0.0000000000000D+00  0.0000000000000D+00
306  3.0500000000000D+00  0.0000000000000D+00  0.0000000000000D+00
307  3.0600000000000D+00  0.0000000000000D+00  0.0000000000000D+00
308  3.0700000000000D+00  0.0000000000000D+00  0.0000000000000D+00
309  3.0800000000000D+00  0.0000000000000D+00  0.0000000000000D+00
310  3.0900000000000D+00  0.0000000000000D+00  0.0000000000000D+00
311  3.1000000000000D+00  0.0000000000000D+00  0.0000000000000D+00
312  3.1100000000000D+00  0.0000000000000D+00  0.0000000000000D+00
313  3.1200000000000D+00  0.0000000000000D+00  0.0000000000000D+00
314  3.1300000000000D+00  0.0000000000000D+00  0.0000000000000D+00
315  3.1400000000000D+00  0.0000000000000D+00  0.0000000000000D+00
316  3.1500000000000D+00  0.0000000000000D+00  0.0000000000000D+00
317  3.1600000000000D+00  0.0000000000000D+00  0.0000000000000D+00
318  3.1700000000000D+00  0.0000000000000D+00  0.0000000000000D+00
319  3.1800000000000D+00  0.0000000000000D+00  0.0000000000000D+00
320  3.1900000000000D+00  0.0000000000000D+00  0.0000000000000D+00
321  3.2000000000000D+00  0.0000000000000D+00  0.0000000000000D+00
322  3.2100000000000D+00  0.0000000000000D+00  0.0000000000000D+00
323  3.2200000000000D+00  0.0000000000000D+00  0.0000000000000D+00
324  3.2300000000000D+00  0.0000000000000D+00  0.0000000000000D+00
325  3.2400000000000D+00  0.0000000000000D+00  0.0000000000000D+00
326  3.2500000000000D+00  0.0000000000000D+00  0.0000000000000D+00
327  3.2600000000000D+00  0.0000000000000D+00  0.0000000000000D+00
328  3.2700000000000D+00  0.0000000000000D+00  0.0000000000000D+00
329  3.2800000000000D+00  0.0000000000000D+00  0.0000000000000D+00
330  3.2900000000000D+00  0.0000000000000D+00  0.0000000000000D+00
331  3.3000000000000D+00  0.0000000000000D+00  0.0000000000000D+00
332  3.3100000000000D+00  0.0000000000000D+00  0.0000000000000D+00
333  3.3200000000000D+00  0.0000000000000D+00  0.0000000000000D+00
334  3.3300000000000D+00  0.0000000000000D+00  0.0000000000000D+00
335  3.3400000000000D+00  0.0000000000000D+00  0.0000000000000D+00
336  3.3500000000000D+00  0.0000000000000D+00  0.0000000000000D+00
337  3.3600000000000D+00  0.0000000000000D+00  0.0000000000000D+00
338  3.3700000000000D+00  0.0000000000000D+00  0.0000000000000D+00
339  3.3800000000000D+00  0.0000000000000D+00  0.0000000000000D+00
340  3.3900000000000D+00  0.0000000000000D+00  0.0000000000000D+00
341  3.4000000000000D+00  0.0000000000000D+00  0.0000000000000D+00
342  3.4100000000000D+00  0.0000000000000D+00  0.0000000000000D+00
343  3.4200000000000D+00  0.0000000000000D+00  0.0000000000000D+00
344  3.4300000000000D+00  0.0000000000000D+00  0.0000000000000D+00
345  3.4400000000000D+00  0.0000000000000D+00  0.0000000000000D+00
346  3.4500000000000D+00  0.0000000000000D+00  0.0000000000000D+00
347  3.4600000000000D+00  0.0000000000000D+00  0.0000000000000D+00
348  3.4700000000000D+00  0.0000000000000D+00  0.0000000000000D+00
349  3.4800000000000D+00  0.0000000000000D+00  0.0000000000000D+00
350  3.4900000000000D+00  0.0000000000000D+00  0.0000000000000D+00
351  3.5000000000000D+00  0.0000000000000D+00  0.0000000000000D+00
352  3.5100000000000D+00  0.0000000000000D+00  0.0000000000000D+00
353  3.5200000000000D+00  0.0000000000000D+00  0.0000000000000D+00
354  3.5300000000000D+00  0.0000000000000D+00  0.0000000000000D+00
355  3.5400000000000D+00  0.0000000000000D+00  0.0000000000000D+00
356  3.5500000000000D+00  0.0000000000000D+00  0.0000000000000D+00
357  3.5600000000000D+00  0.0000000000000D+00  0.0000000000000D+00
358  3.5700000000000D+00  0.0000000000000D+00  0.0000000000000D+00
359  3.5800000000000D+00  0.0000000000000D+00  0.0000000000000D+00
360  3.5900000000000D+00  0.0000000000000D+00  0.0000000000000D+00
361  3.6000000000000D+00  0.0000000000000D+00  0.0000000000000D+00
362  3.6100000000000D+00  0.0000000000000D+00  0.0000000000000D+00
363  3.6200000000000D+00  0.0000000000000D+00  0.0000000000000D+00
364  3.6300000000000D+00  0.0000000000000D+00  0.0000000000000D+00
365  3.6400000000000D+00  0.0000000000000D+00  0.0000000000000D+00
366  3.6500000000000D+00  0.0000000000000D+00  0.0000000000000D+00
367  3.6600000000000D+00  0.0000000000000D+00  0.0000000000000D+00
368  3.6700000000000D+00  0.0000000000000D+00  0.0000000000000D+00
369  3.6800000000000D+00  0.0000000000000D+00  0.0000000000000D+00
370  3.6900000000000D+00  0.0000000000000D+00  0.0000000000000D+00
371  3.7000000000000D+00  0.0000000000000D+00  0.0000000000000D+00
372  3.7100000000000D+00  0.0000000000000D+00  0.0000000000000D+00
373  3.7200000000000D+00  0.0000000000000D+00  0.0000000000000D+00
374  3.7300000000000D+00  0.0000000000000D+00  0.0000000000000D+00
375  3.7400000000000D+00  0.0000000000000D+00  0.0000000000000D+00
376  3.7500000000000D+00  0.0000000000000D+00  0.0000000000000D+00
377  3.7600000000000D+00  0.0000000000000D+00  0.0000000000000D+00
378  3.7700000000000D+00  0.0000000000000D+00  0.0000000000000D+00
379  3.7800000000000D+00  0.0000000000000D+00  0.0000000000000D+00
380  3.7900000000000D+00  0.0000000000000D+00  0.0000000000000D+00
381  3.8000000000000D+00  0.0000000000000D+00  0.0000000000000D+00
382  3.8100000000000D+00  0.0000000000000D+00  0.0000000000000D+00
383  3.8200000000000D+00  0.0000000000000D+00  0.0000000000000D+00
384  3.8300000000000D+00  0.0000000000000D+00  0.0000000000000D+00
385  3.8400000000000D+00  0.0000000000000D+00  0.0000000000000D+00
386  3.8500000000000D+00  0.0000000000000D+00  0.0000000000000D+00
387  3.8600000000000D+00  0.0000000000000D+00  0.0000000000000D+00
388  3.8700000000000D+00  0.0000000000000D+00  0.0000000000000D+00
389  3.8800000000000D+00  0.0000000000000D+00  0.0000000000000D+00
390  3.8900000000000D+00  0.0000000000000D+00  0.0000000000000D+00
391  3.9000000000000D+00  0.0000000000000D+00  0.0000000000000D+00
392  3.9100000000000D+00  0.0000000000000D+00  0.0000000000000D+00
393  3.9200000000000D+00  0.0000000000000D+00  0.0000000000000D+00
394  3.9300000000000D+00  0.0000000000000D+00  0.0000000000000D+00
395  3.9400000000000D+00  0.0000000000000D+00  0.0000000000000D+00
396  3.9500000000000D+00  0.0000000000000D+00  0.0000000000000D+00
397  3.9600000000000D+00  0.0000000000000D+00  0.0000000000000D+00
398  3.9700000000000D+00  0.0000000000000D+00  0.0000000000000D+00
399  3.9800000000000D+00  0.0000000000000D+00  0.0000000000000D+00
400  3.9900000000000D+00  0.0000000000000D+00  0.0000000000000D+00
401  4.0000000000000D+00  0.0000000000000D+00  0.0000000000000D+00
402  4.0100000000000D+00  0.0000000000000D+00  0.0000000000000D+00
403  4.0200000000000D+00  0.0000000000000D+00  0.0000000000000D+00
404  4.0300000000000D+00  0.0000000000000D+00  0.0000000000000D+00
405  4.0400000000000D+00  0.0000000000000D+00  0.0000000000000D+00
406  4.0500000000000D+00  0.0000000000000D+00  0.0000000000000D+00
407  4.0600000000000D+00  0.0000000000000D+00  0.0000000000000D+00
408  4.0700000000000D+00  0.0000000000000D+00  0.0000000000000D+00
409  4.0800000000000D+00  0.0000000000000D+00  0.0000000000000D+00
410  4.0900000000000D+00  0.0000000000000D+00  0.0000000000000D+00
411  4.1000000000000D+00  0.0000000000000D+00  0.0000000000000D+00
412  4.1100000000000D+00  0.0000000000000D+00  0.0000000000000D+00
413  4.1200000000000D+00  0.0000000000000D+00  0.0000000000000D+00
414  4.1300000000000D+00  0.0000000000000D+00  0.0000000000000D+00
415  4.1400000000000D+00  0.0000000000000D+00  0.0000000000000D+00
416  4.1500000000000D+00  0.0000000000000D+00  0.0000000000000D+00
417  4.1600000000000D+00  0.0000000000000D+00  0.0000000000000D+00
418  4.1700000000000D+00  0.0000000000000D+00  0.0000000000000D+00
419  4.1800000000000D+00  0.0000000000000D+00  0.0000000000000D+00
420  4.1900000000000D+00  0.0000000000000D+00  0.0000000000000D+00
421  4.2000000000000D+00  0.0000000000000D+00  0.0000000000000D+00
422  4.2100000000000D+00  0.0000000000000D+00  0.0000000000000D+00
423  4.2200000000000D+00  0.0000000000000D+00  0.0000000000000D+00
424  4.2300000000000D+00  0.0000000000000D+00  0.0000000000000D+00
425  4.2400000000000D+00  0.0000000000000D+00  0.0000000000000D+00
426  4.2500000000000D+00  0.0000000000000D+00  0.0000000000000D+00
427  4.2600000000000D+00  0.0000000000000D+00  0.0000000000000D+00
428  4.2700000000000D+00  0.0000000000000D+00  0.0000000000000D+00
429  4.2800000000000D+00  0.0000000000000D+00  0.0000000000000D+00
430  4.2900000000000D+00  0.0000000000000D+00  0.0000000000000D+00
431  4.3000000000000D+00  0.0000000000000D+00  0.0000000000000D+00
432  4.3100000000000D+00  0.0000000000000D+00  0.0000000000000D+00
433  4.3200000000000D+00  0.0000000000000D+00  0.0000000000000D+00
434  4.3300000000000D+00  0.0000000000000D+00  0.0000000000000D+00
435  4.3400000000000D+00  0.0000000000000D+00  0.0000000000000D+00
436  4.3500000000000D+00  0.0000000000000D+00  0.0000000000000D+00
437  4.3600000000000D+00  0.0000000000000D+00  0.0000000000000D+00
438  4.3700000000000D+00  0.0000000000000D+00  0.0000000000000D+00
439  4.3800000000000D+00  0.0000000000000D+00  0.0000000000000D+00
440  4.3900000000000D+00  0.0000000000000D+00  0.0000000000000D+00
441  4.4000000000000D+00  0.0000000000000D+00  0.0000000000000D+00
442  4.4100000000000D+00  0.0000000000000D+00  0.0000000000000D+00
443  4.4200000000000D+00  0.0000000000000D+00  0.0000000000000D+00