<?xml version="1.0" encoding="UTF-8" ?>
<psml version="1.1" energy_unit="hartree" length_unit="bohr"
 uuid="8b43c520-539f-11e8-5168-1fd2ebee8c75"
 xmlns="http://esl.cecam.org/PSML/ns/1.1">
<provenance creator="ONCVPSP-3.3.0+psml-3.3.0-73 (fully-relativistic)"
 date="2018-05-09">
<annotation action="semilocal-pseudopotential-generation"
 action-cont="projectors-generation" />
<input-file name="oncvpsp-input">
<![CDATA[# atsym z nc nv iexc psfile
Ba 56 9 3 -116133 upf
# n l f
1 0 2.0
2 0 2.0
2 1 6.0
3 0 2.0
3 1 6.0
3 2 10.0
4 0 2.0
4 1 6.0
4 2 10.0
5 0 2.0
5 1 6.0
6 0 2.0
# lmax
2
# l rc ep ncon nbas qcut
0 2.15 0.0 4 7 5.2
1 1.9 0.0 4 8 6.6
2 2.15 0.0 4 9 6.6
# lloc lpopt rc5 dvloc0
4 5 1.9 0.0
# l nproj debl
0 2 1.0
1 2 2.5
2 2 3.0
# icmod fcfact
3 5 1.25
# epsh1 epsh2 depsh
-12.0 12.0 0.02
# rlmax drl
6.0 0.01
 0
]]>
</input-file>
</provenance>
<pseudo-atom-spec atomic-label="Ba" atomic-number="56" z-pseudo="10"
 flavor="Hamann&apos;s oncvpsp" relativity="dirac" spin-dft="no"
 core-corrections="yes">
<annotation pseudo-energy="-25.6547224706" />
<exchange-correlation>
<annotation oncvpsp-xc-code="-116133" oncvpsp-xc-type="libxc-interface" />
<libxc-info number-of-functionals="2">
<functional name="Perdew, Burke &amp; Ernzerhof SOL (GGA)" type="exchange"
 id="116" />
<functional name="Perdew, Burke &amp; Ernzerhof SOL (GGA)" type="correlation"
 id="133" />
</libxc-info>
</exchange-correlation>
<valence-configuration total-valence-charge="10">
<shell n="5" l="s" occupation="2" />
<shell n="5" l="p" occupation="6" />
<shell n="6" l="s" occupation="2" />
</valence-configuration>
</pseudo-atom-spec>
<grid npts="457">
<annotation type="sampled from oncvpsp log grid"
 recipe="r(i:1..N) = r1*exp(a*(i-1)) + r=0; resampled"
 recipe-cont="r1: scale; a: step" scale="0.892857142857E-05"
 step="0.119285708653E-01" delta="0.500000000000E-02" rmax="44.0559055307" />
<grid-data>
  0.000000000000E+00  5.030765996809E-03  1.004856027829E-02  1.507444276529E-02
  2.031206510006E-02  2.547908439618E-02  3.083699266043E-02  3.600963173750E-02
  4.105861707579E-02  4.626040627112E-02  5.150318121329E-02  5.666020677615E-02
  6.233360651298E-02  6.776194178895E-02  7.278953042278E-02  7.819014035445E-02
  8.399144785162E-02  8.915334250897E-02  9.463247370808E-02  1.004483379769E-01
  1.066216300490E-01  1.118323285593E-01  1.172976787660E-01  1.230301257351E-01
  1.290427227344E-01  1.353491609572E-01  1.419638006982E-01  1.471360711987E-01
  1.524967867957E-01  1.580528132467E-01  1.638112664542E-01  1.697795215795E-01
  1.759652224887E-01  1.823762915423E-01  1.890209397420E-01  1.959076772469E-01
  2.030453242728E-01  2.104430223891E-01  2.155239587216E-01  2.207275691810E-01
  2.260568156113E-01  2.315147313674E-01  2.371044230416E-01  2.428290722315E-01
  2.486919373514E-01  2.546963554868E-01  2.608457442937E-01  2.671436039439E-01
  2.735935191176E-01  2.801991610431E-01  2.869642895874E-01  2.938927553952E-01
  3.009885020814E-01  3.082555684757E-01  3.156980909209E-01  3.233203056281E-01
  3.311265510872E-01  3.391212705367E-01  3.473090144925E-01  3.556944433384E-01
  3.642823299784E-01  3.730775625534E-01  3.820851472237E-01  3.913102110182E-01
  4.007580047531E-01  4.104339060198E-01  4.203434222468E-01  4.253875433137E-01
  4.304921938335E-01  4.356581001595E-01  4.408859973614E-01  4.461766293297E-01
  4.515307488817E-01  4.569491178683E-01  4.624325072827E-01  4.679816973701E-01
  4.735974777385E-01  4.792806474714E-01  4.850320152411E-01  4.908523994239E-01
  4.967426282170E-01  5.027035397556E-01  5.087359822327E-01  5.148408140195E-01
  5.210189037877E-01  5.272711306332E-01  5.335983842008E-01  5.400015648112E-01
  5.464815835889E-01  5.530393625920E-01  5.596758349431E-01  5.663919449624E-01
  5.731886483020E-01  5.800669120816E-01  5.870277150266E-01  5.940720476069E-01
  6.012009121782E-01  6.084153231243E-01  6.157163070018E-01  6.231049026858E-01
  6.305821615181E-01  6.381491474563E-01  6.458069372257E-01  6.535566204725E-01
  6.613992999181E-01  6.693360915171E-01  6.773681246153E-01  6.854965421107E-01
  6.937225006161E-01  7.020471706235E-01  7.104717366709E-01  7.189973975110E-01
  7.276253662811E-01  7.363568706765E-01  7.451931531246E-01  7.541354709621E-01
  7.631850966137E-01  7.723433177730E-01  7.816114375863E-01  7.909907748373E-01
  8.004826641354E-01  8.100884561050E-01  8.198095175783E-01  8.296472317892E-01
  8.396029985707E-01  8.496782345535E-01  8.598743733682E-01  8.701928658486E-01
  8.806351802388E-01  8.912028024016E-01  9.018972360304E-01  9.127200028628E-01
  9.236726428972E-01  9.347567146119E-01  9.459737951873E-01  9.573254807295E-01
  9.688133864983E-01  9.804391471363E-01  9.922044169019E-01  1.004110869905E+00
  1.016160200344E+00  1.028354122748E+00  1.040694372221E+00  1.053182704687E+00
  1.065820897144E+00  1.078610747909E+00  1.091554076884E+00  1.104652725807E+00
  1.117908558516E+00  1.131323461219E+00  1.144899342753E+00  1.158638134866E+00
  1.172541792485E+00  1.186612293995E+00  1.200851641522E+00  1.215261861221E+00
  1.229845003555E+00  1.244603143598E+00  1.259538381321E+00  1.274652841897E+00
  1.289948676000E+00  1.305428060112E+00  1.321093196833E+00  1.336946315195E+00
  1.352989670978E+00  1.369225547029E+00  1.385656253594E+00  1.402284128637E+00
  1.419111538180E+00  1.436140876639E+00  1.453374567158E+00  1.470815061964E+00
  1.488464842708E+00  1.506326420820E+00  1.524402337870E+00  1.542695165924E+00
  1.561207507916E+00  1.579941998011E+00  1.598901301987E+00  1.618088117611E+00
  1.637505175022E+00  1.657155237122E+00  1.677041099968E+00  1.697165593167E+00
  1.717531580285E+00  1.738141959249E+00  1.758999662760E+00  1.780107658713E+00
  1.801468950617E+00  1.823086578025E+00  1.844963616961E+00  1.867103180365E+00
  1.889508418529E+00  1.912182519551E+00  1.935128709786E+00  1.958350254303E+00
  1.981850457355E+00  2.005632662843E+00  2.029700254797E+00  2.054056657855E+00
  2.078705337749E+00  2.103649801802E+00  2.128893599424E+00  2.154440322617E+00
  2.180293606488E+00  2.206457129766E+00  2.232934615323E+00  2.259729830707E+00
  2.286846588676E+00  2.314288747740E+00  2.342060212713E+00  2.370164935265E+00
  2.398606914488E+00  2.427390197462E+00  2.456518879832E+00  2.485997106390E+00
  2.515829071666E+00  2.546019020526E+00  2.576571248773E+00  2.607490103758E+00
  2.638779985003E+00  2.670445344823E+00  2.702490688961E+00  2.734920577229E+00
  2.767739624155E+00  2.800952499645E+00  2.834563929641E+00  2.868578696797E+00
  2.903001641158E+00  2.937837660852E+00  2.973091712782E+00  3.008768813336E+00
  3.044874039096E+00  3.081412527565E+00  3.118389477896E+00  3.155810151630E+00
  3.193679873450E+00  3.232004031931E+00  3.270788080314E+00  3.310037537278E+00
  3.349757987726E+00  3.389955083578E+00  3.430634544581E+00  3.471802159116E+00
  3.513463785026E+00  3.555625350446E+00  3.598292854651E+00  3.641472368907E+00
  3.685170037334E+00  3.729392077782E+00  3.774144782715E+00  3.819434520108E+00
  3.865267734349E+00  3.911650947161E+00  3.958590758527E+00  4.006093847630E+00
  4.054166973801E+00  4.102816977487E+00  4.152050781217E+00  4.201875390591E+00
  4.252297895278E+00  4.303325470022E+00  4.354965375662E+00  4.407224960170E+00
  4.460111659692E+00  4.513632999608E+00  4.567796595604E+00  4.622610154751E+00
  4.678081476608E+00  4.734218454327E+00  4.791029075779E+00  4.848521424688E+00
  4.906703681785E+00  4.965584125966E+00  5.025171135478E+00  5.085473189103E+00
  5.146498867373E+00  5.208256853781E+00  5.270755936027E+00  5.334005007259E+00
  5.398013067346E+00  5.462789224154E+00  5.528342694844E+00  5.594682807182E+00
  5.661819000868E+00  5.729760828879E+00  5.798517958825E+00  5.868100174331E+00
  5.938517376423E+00  6.009779584940E+00  6.081896939959E+00  6.154879703239E+00
  6.228738259678E+00  6.303483118794E+00  6.379124916219E+00  6.455674415214E+00
  6.533142508197E+00  6.611540218295E+00  6.690878700915E+00  6.771169245326E+00
  6.852423276269E+00  6.934652355585E+00  7.017868183852E+00  7.102082602058E+00
  7.187307593283E+00  7.273555284402E+00  7.360837947815E+00  7.449168003189E+00
  7.538558019227E+00  7.629020715458E+00  7.720568964043E+00  7.813215791612E+00
  7.906974381111E+00  8.001858073684E+00  8.097880370569E+00  8.195054935015E+00
  8.293395594236E+00  8.392916341366E+00  8.493631337463E+00  8.595554913512E+00
  8.698701572474E+00  8.803085991344E+00  8.908723023240E+00  9.015627699519E+00
  9.123815231913E+00  9.233301014696E+00  9.344100626873E+00  9.456229834395E+00
  9.569704592408E+00  9.684541047517E+00  9.800755540087E+00  9.918364606568E+00
  1.003738498185E+01  1.015783360163E+01  1.027972760485E+01  1.040308433611E+01
  1.052792134814E+01  1.065425640432E+01  1.078210748117E+01  1.091149277094E+01
  1.104243068419E+01  1.117493985241E+01  1.130903913063E+01  1.144474760020E+01
  1.158208457140E+01  1.172106958626E+01  1.186172242130E+01  1.200406309035E+01
  1.214811184744E+01  1.229388918961E+01  1.244141585988E+01  1.259071285020E+01
  1.274180140440E+01  1.289470302125E+01  1.304943945751E+01  1.320603273100E+01
  1.336450512377E+01  1.352487918526E+01  1.368717773548E+01  1.385142386831E+01
  1.401764095473E+01  1.418585264618E+01  1.435608287794E+01  1.452835587247E+01
  1.470269614294E+01  1.487912849666E+01  1.505767803862E+01  1.523837017508E+01
  1.542123061718E+01  1.560628538459E+01  1.579356080920E+01  1.598308353891E+01
  1.617488054138E+01  1.636897910788E+01  1.656540685717E+01  1.676419173946E+01
  1.696536204033E+01  1.716894638481E+01  1.737497374143E+01  1.758347342633E+01
  1.779447510744E+01  1.800800880873E+01  1.822410491444E+01  1.844279417341E+01
  1.866410770349E+01  1.888807699593E+01  1.911473391989E+01  1.934411072692E+01
  1.957624005565E+01  1.981115493632E+01  2.004888879555E+01  2.028947546110E+01
  2.053294916663E+01  2.077934455663E+01  2.102869669131E+01  2.128104105161E+01
  2.153641354422E+01  2.179485050676E+01  2.205638871284E+01  2.232106537739E+01
  2.258891816192E+01  2.285998517986E+01  2.313430500202E+01  2.341191666205E+01
  2.369285966199E+01  2.397717397793E+01  2.426490006567E+01  2.455607886646E+01
  2.485075181285E+01  2.514896083461E+01  2.545074836462E+01  2.575615734500E+01
  2.606523123314E+01  2.637801400794E+01  2.669455017603E+01  2.701488477814E+01
  2.733906339548E+01  2.766713215623E+01  2.799913774210E+01  2.833512739501E+01
  2.867514892375E+01  2.901925071083E+01  2.936748171936E+01  2.971989150000E+01
  3.007653019800E+01  3.043744856037E+01  3.080269794310E+01  3.117233031841E+01
  3.154639828223E+01  3.192495506162E+01  3.230805452236E+01  3.269575117663E+01
  3.308810019075E+01  3.348515739304E+01  3.388697928175E+01  3.429362303313E+01
  3.470514650953E+01  3.512160826765E+01  3.554306756686E+01  3.596958437766E+01
  3.640121939019E+01  3.683803402287E+01  3.728009043115E+01  3.772745151632E+01
  3.818018093452E+01  3.863834310573E+01  3.910200322300E+01  3.957122726168E+01
  4.004608198882E+01  4.052663497268E+01  4.101295459236E+01  4.150511004746E+01
  4.200317136803E+01  4.250720942445E+01  4.301729593754E+01  4.353350348879E+01
  4.405590553066E+01
</grid-data>
</grid>
<valence-charge total-charge="10" is-unscreening-charge="yes"
 rescaled-to-z-pseudo="no">
<radfunc>
<data npts="457">
  6.139076264739E-03  6.147347936880E-03  6.172109186728E-03  6.213534477840E-03
  6.274579675549E-03  6.352920766957E-03  6.453497478037E-03  6.569675901537E-03
  6.701595970495E-03  6.857164447102E-03  7.034754559641E-03  7.230481056199E-03
  7.470792140844E-03  7.726188032881E-03  7.985845875393E-03  8.290564290065E-03
  8.648964518158E-03  8.996150040261E-03  9.395172336788E-03  9.854706386027E-03
  1.038509058759E-02  1.086863906533E-02  1.141284120288E-02  1.202632795008E-02
  1.271912683487E-02  1.350291175066E-02  1.439130013105E-02  1.513571332540E-02
  1.595555783844E-02  1.685950350752E-02  1.785732699581E-02  1.896006271911E-02
  2.018017486255E-02  2.153175337988E-02  2.303073723206E-02  2.469516852097E-02
  2.654548160661E-02  2.860483176088E-02  3.010668649950E-02  3.172166785584E-02
  3.345915847105E-02  3.532936361479E-02  3.734338396705E-02  3.951329452637E-02
  4.185223007776E-02  4.437447766687E-02  4.709557653555E-02  5.003242597845E-02
  5.320340157746E-02  5.662848026015E-02  6.032937460702E-02  6.432967679856E-02
  6.865501254304E-02  7.333320525753E-02  7.839445068275E-02  8.387150199301E-02
  8.979986531090E-02  9.621800534604E-02  1.031675606418E-01  1.106935676259E-01
  1.188446923117E-01  1.276734680785E-01  1.372365374604E-01  1.475948952828E-01
  1.588141297953E-01  1.709646576431E-01  1.841219475903E-01  1.911031450240E-01
  1.983667268382E-01  2.059236353753E-01  2.137851625684E-01  2.219629536294E-01
  2.304690099680E-01  2.393156912455E-01  2.485157164576E-01  2.580821639355E-01
  2.680284701461E-01  2.783684271625E-01  2.891161786693E-01  3.002862143575E-01
  3.118933625554E-01  3.239527809332E-01  3.364799451087E-01  3.494906349736E-01
  3.630009185507E-01  3.770271331823E-01  3.915858638426E-01  4.066939183574E-01
  4.223682993073E-01  4.386261723819E-01  4.554848309477E-01  4.729616565831E-01
  4.910740753341E-01  5.098395094355E-01  5.292753242432E-01  5.493987701230E-01
  5.702269190408E-01  5.917765956049E-01  6.140643023163E-01  6.371061387912E-01
  6.609177147350E-01  6.855140564586E-01  7.109095067507E-01  7.371176179429E-01
  7.641510380298E-01  7.920213897437E-01  8.207391425190E-01  8.503134773258E-01
  8.807521444035E-01  9.120613139801E-01  9.442454201276E-01  9.773069979715E-01
  1.011246514552E+00  1.046062193718E+00  1.081749835524E+00  1.118302630704E+00
  1.155710970906E+00  1.193962255463E+00  1.233040695633E+00  1.272927117342E+00
  1.313598763586E+00  1.355029097842E+00  1.397187609893E+00  1.440039625717E+00
  1.483546123145E+00  1.527663555216E+00  1.572343683245E+00  1.617533421812E+00
  1.663174697983E+00  1.709204327207E+00  1.755553908488E+00  1.802149741474E+00
  1.848912768266E+00  1.895758542745E+00  1.942597230328E+00  1.989333641043E+00
  2.035867298797E+00  2.082092549712E+00  2.127898712262E+00  2.173170271855E+00
  2.217787122349E+00  2.261624856718E+00  2.304555108885E+00  2.346445948380E+00
  2.387162329103E+00  2.426566593071E+00  2.464519029514E+00  2.500878489140E+00
  2.535503052816E+00  2.568250753224E+00  2.598980347357E+00  2.627552136974E+00
  2.653828833332E+00  2.677676461672E+00  2.698965300099E+00  2.717570846599E+00
  2.733374807077E+00  2.746266096392E+00  2.756141843542E+00  2.762908391303E+00
  2.766482279869E+00  2.766791203331E+00  2.763774927227E+00  2.757386154892E+00
  2.747591329963E+00  2.734371362170E+00  2.717722263520E+00  2.697655682113E+00
  2.674199321214E+00  2.647397231808E+00  2.617309967723E+00  2.584014593565E+00
  2.547604537061E+00  2.508189279180E+00  2.465893877297E+00  2.420858318974E+00
  2.373236706400E+00  2.323196274299E+00  2.270916246994E+00  2.216586543452E+00
  2.160406342234E+00  2.102582521491E+00  2.043327992252E+00  1.982859946221E+00
  1.921398042016E+00  1.859162556216E+00  1.796372527474E+00  1.733243923444E+00
  1.669987861044E+00  1.606808910691E+00  1.543903514549E+00  1.481458547367E+00
  1.419650046280E+00  1.358642132920E+00  1.298586174853E+00  1.239620307421E+00
  1.181869326049E+00  1.125444655189E+00  1.070444326957E+00  1.016953146995E+00
  9.650429497587E-01  9.147729624399E-01  8.661902655376E-01  8.193303415769E-01
  7.742177973600E-01  7.308675149447E-01  6.892860185368E-01  6.494720162414E-01
  6.114169700552E-01  5.751056537041E-01  5.405167151656E-01  5.076232341116E-01
  4.763932720392E-01  4.467904118161E-01  4.187742839711E-01  3.923010770956E-01
  3.673240305013E-01  3.437939069484E-01  3.216594439573E-01  3.008677823137E-01
  2.813648706408E-01  2.630958451466E-01  2.460053838699E-01  2.300380349611E-01
  2.151385187291E-01  2.012520033754E-01  1.883243545173E-01  1.763023587748E-01
  1.651339218600E-01  1.547682417680E-01  1.451559578231E-01  1.362492764845E-01
  1.280020749620E-01  1.203699838434E-01  1.133104500761E-01  1.067827817877E-01
  1.007481765588E-01  9.516973486834E-02  9.001246050263E-02  8.524324973454E-02
  8.083087102518E-02  7.674593686274E-02  7.296086913570E-02  6.944985915617E-02
  6.618882313704E-02  6.315535362957E-02  6.032866719081E-02  5.768954840797E-02
  5.522029037400E-02  5.290463177408E-02  5.072769087724E-02  4.867589688822E-02
  4.673691926437E-02  4.489959570898E-02  4.315385960321E-02  4.149066763141E-02
  3.990192830019E-02  3.838043196406E-02  3.691978286549E-02  3.551433358933E-02
  3.415912222832E-02  3.284981246590E-02  3.158263670541E-02  3.035434231286E-02
  2.916214099134E-02  2.800366126801E-02  2.687690404630E-02  2.578020115572E-02
  2.471217681616E-02  2.367171192319E-02  2.265791105257E-02  2.167007207642E-02
  2.070765827925E-02  1.977027285828E-02  1.885763568967E-02  1.796956223945E-02
  1.710594449585E-02  1.626673379719E-02  1.545192542789E-02  1.466154485379E-02
  1.389563546762E-02  1.315424771658E-02  1.243742948701E-02  1.174521762648E-02
  1.107763049263E-02  1.043466142967E-02  9.816273088992E-03  9.222392528769E-03
  8.652907047187E-03  8.107660724900E-03  7.586451670889E-03  7.089029981165E-03
  6.615096422549E-03  6.164301906085E-03  5.736247666257E-03  5.330486264123E-03
  4.946523338859E-03  4.583820085693E-03  4.241796403037E-03  3.919834630228E-03
  3.617283779442E-03  3.333464152534E-03  3.067672226384E-03  2.819185689009E-03
  2.587268512655E-03  2.371175958521E-03  2.170159419577E-03  1.983471021943E-03
  1.810367920476E-03  1.650116239598E-03  1.501994625176E-03  1.365297387034E-03
  1.239337223863E-03  1.123447532866E-03  1.016984315231E-03  9.193276955601E-04
  8.298830787403E-04  7.480819716312E-04  6.733824994433E-04  6.052696480654E-04
  5.432552639902E-04  4.868778430731E-04  4.357021383156E-04  3.893186153129E-04
  3.473427820980E-04  3.094144179465E-04  2.751967233854E-04  2.443754112603E-04
  2.166577563209E-04  1.917716184589E-04  1.694644525061E-04  1.495023154313E-04
  1.316688798751E-04  1.157644612602E-04  1.016050642194E-04  8.902145279370E-05
  7.785824776340E-05  6.797305357863E-05  5.923561662667E-05  5.152701599957E-05
  4.473888747983E-05  3.877268112318E-05  3.353895256365E-05  2.895668797730E-05
  2.495266249856E-05  2.146083177316E-05  1.842175624197E-05  1.578205767164E-05
  1.349390737484E-05  1.151454549176E-05  9.805830632232E-06  8.333819105739E-06
  7.068372894114E-06  5.982795450720E-06  5.053494342404E-06  4.259669687911E-06
  3.583027290823E-06  3.007515317786E-06  2.519083335055E-06  2.105462488980E-06
  1.755965599363E-06  1.461305928748E-06  1.213433395263E-06  1.005387011201E-06
  8.311623531648E-07  6.855929014757E-07  5.642441255461E-07  4.633192369017E-07
  3.795755814189E-07  3.102506959360E-07  2.529971106653E-07  2.058250367568E-07
  1.670521370231E-07  1.352596364203E-07  1.092540866683E-07  8.803415578348E-08
  7.076186777689E-08  5.673776995222E-08  4.537955479204E-08  3.620371014093E-08
  2.880981512355E-08  2.286713990042E-08  1.810324494261E-08  1.429431002968E-08
  1.125695471335E-08  8.841340646141E-09  6.925372080491E-09  5.409834145692E-09
  4.214329371214E-09  3.273891513136E-09  2.536172229407E-09  1.959110712117E-09
  1.509009190844E-09  1.158948435100E-09  8.874871633204E-10  6.775977597116E-10
  5.157980480647E-10  3.914452030523E-10  2.961633137573E-10  2.233807604663E-10
  1.679575230988E-10  1.258858973859E-10  9.405093315259E-11  7.003929913133E-11
  5.198728386523E-11  3.846031815481E-11  2.835779997763E-11  2.083816045313E-11
  1.526006617452E-11  1.113644098984E-11  8.098636498377E-12  5.868608587592E-12
  4.237387232187E-12  3.048475432677E-12  2.185094860389E-12  1.560422489915E-12
  1.110144264839E-12  7.867970049384E-13  5.554852412818E-13  3.906511687561E-13
  2.736481240014E-13  1.909247674231E-13  1.326715955938E-13  9.181606872501E-14
  6.327955236028E-14  4.343008698319E-14  2.968102923800E-14  2.019790180242E-14
  1.368517661333E-14  9.231854175781E-15  6.200105666997E-15  4.145317833282E-15
  2.758937371035E-15  1.827795055659E-15  1.205288177053E-15  7.910571029279E-16
  5.167182626487E-16  3.358953758408E-16  2.172868126120E-16  1.398673767862E-16
  8.958338763258E-17  5.708742905359E-17  3.619337501234E-17  2.282793334987E-17
  1.432273707774E-17  8.938816445165E-18  5.548823683287E-18  3.425789915868E-18
  2.103444538637E-18  1.284349511744E-18  7.798087694629E-19  4.707780834462E-19
  2.825777073255E-19  0.000000000000E+00  0.000000000000E+00  0.000000000000E+00
  0.000000000000E+00
</data>
</radfunc>
</valence-charge>
<pseudocore-charge matching-radius="1.25953838132"
 number-of-continuous-derivatives="4">
<annotation model-charge-form="Teter function with specified parameters" />
<radfunc>
<data npts="290">
  1.474362403230E+01  1.474314843688E+01  1.474172663837E+01  1.473935430998E+01
  1.473587268454E+01  1.473142921278E+01  1.472576435610E+01  1.471927524694E+01
  1.471197592478E+01  1.470345972299E+01  1.469385528273E+01  1.468340962462E+01
  1.467077668606E+01  1.465757262263E+01  1.464437160758E+01  1.462915286256E+01
  1.461161043884E+01  1.459496462733E+01  1.457623120304E+01  1.455515138411E+01
  1.453143512620E+01  1.451034684369E+01  1.448718009190E+01  1.446173365841E+01
  1.443378761684E+01  1.440310174837E+01  1.436941386520E+01  1.434200682119E+01
  1.431262084477E+01  1.428111738763E+01  1.424734886891E+01  1.421115819064E+01
  1.417237824414E+01  1.413083141082E+01  1.408632906097E+01  1.403867105562E+01
  1.398764525683E+01  1.393302705362E+01  1.389450238157E+01  1.385420213026E+01
  1.381204995452E+01  1.376796677694E+01  1.372187074757E+01  1.367367720996E+01
  1.362329867450E+01  1.357064480024E+01  1.351562238635E+01  1.345813537445E+01
  1.339808486335E+01  1.333536913766E+01  1.326988371196E+01  1.320152139233E+01
  1.313017235721E+01  1.305572425959E+01  1.297806235294E+01  1.289706964306E+01
  1.281262706861E+01  1.272461371282E+01  1.263290704941E+01  1.253738322568E+01
  1.243791738578E+01  1.233438403775E+01  1.222665746742E+01  1.211461220293E+01
  1.199812353330E+01  1.187706808478E+01  1.175132445864E+01  1.168665735348E+01
  1.162077393400E+01  1.155365990507E+01  1.148530123924E+01  1.141568420488E+01
  1.134479539544E+01  1.127262176000E+01  1.119915063501E+01  1.112436977730E+01
  1.104826739840E+01  1.097083220011E+01  1.089205341139E+01  1.081192082660E+01
  1.073042484496E+01  1.064755651146E+01  1.056330755901E+01  1.047767045190E+01
  1.039063843063E+01  1.030220555798E+01  1.021236676640E+01  1.012111790660E+01
  1.002845579739E+01  9.934378276733E+00  9.838884253898E+00  9.741973762710E+00
  9.643648015854E+00  9.543909460129E+00  9.442761832605E+00  9.340210217579E+00
  9.236261104247E+00  9.130922444987E+00  9.024203714135E+00  8.916115967127E+00
  8.806671899869E+00  8.695885908191E+00  8.583774147207E+00  8.470354590417E+00
  8.355647088360E+00  8.239673426595E+00  8.122457382823E+00  8.004024782877E+00
  7.884403555360E+00  7.763623784651E+00  7.641717762000E+00  7.518720034415E+00
  7.394667451021E+00  7.269599206579E+00  7.143556881792E+00  7.016584480065E+00
  6.888728460324E+00  6.760037765505E+00  6.630563846317E+00  6.500360679850E+00
  6.369484782608E+00  6.237995217509E+00  6.105953594423E+00  5.973424063764E+00
  5.840473302694E+00  5.707170493451E+00  5.573587293344E+00  5.439797795927E+00
  5.305878482914E+00  5.171908166339E+00  5.037967920549E+00  4.904141003570E+00
  4.770512767438E+00  4.637170557108E+00  4.504203597571E+00  4.371702868841E+00
  4.239760968533E+00  4.108471961766E+00  3.977931218200E+00  3.848235236061E+00
  3.719481453063E+00  3.591768044230E+00  3.465193706659E+00  3.339857431390E+00
  3.215858262591E+00  3.093295044405E+00  2.972266155887E+00  2.852869234558E+00
  2.735200889242E+00  2.619356402953E+00  2.505429426741E+00  2.393511665511E+00
  2.283692556989E+00  2.176058945138E+00  2.070694749457E+00  1.967680631734E+00
  1.867093661984E+00  1.769006985417E+00  1.673489492415E+00  1.580605493638E+00
  1.490414402479E+00  1.402970427218E+00  1.318322275295E+00  1.236512872230E+00
  1.157579097770E+00  1.081551541889E+00  1.008454283288E+00  9.383046930653E-01
  8.711132661502E-01  8.068834830985E-01  7.456117047015E-01  6.872871017771E-01
  6.318916223304E-01  5.793999980858E-01  5.297797921531E-01  4.829914893172E-01
  4.389886301273E-01  3.977179896115E-01  3.591198010490E-01  3.231280248093E-01
  2.896706618101E-01  2.586701106520E-01  2.300435669820E-01  2.037034631004E-01
  1.795579452813E-01  1.575113857253E-01  1.374649255156E-01  1.193170444092E-01
  1.029641527794E-01  8.830120054587E-02  7.522229748172E-02  6.362133890746E-02
  5.339263045716E-02  4.443150536128E-02  3.663492753470E-02  2.990207370172E-02
  2.413488783895E-02  1.923860138081E-02  1.512221291589E-02  1.169892150836E-02
  8.886508309417E-03  6.607661774946E-03  4.790242574752E-03  3.367485154447E-03
  2.278133883692E-03  1.466512776848E-03  8.825288857912E-04  4.816106173072E-04
  2.245833936481E-04  7.748622698127E-05  1.133388687375E-05  1.830374021431E-06
  2.904034229673E-05  7.702590481123E-05  1.334568900045E-04  1.892030557952E-04
  2.379170028950E-04  2.756165372622E-04  3.002750076664E-04  3.114276861766E-04
  3.098015739630E-04  2.969751175741E-04  2.750732359532E-04  2.465018184150E-04
  2.137244988312E-04  1.790830881209E-04  1.446616075475E-04  1.121924639740E-04
  8.300200049846E-05  5.799149517183E-05  3.764871551732E-05  2.208440858487E-05
  1.108764652835E-05  4.193775125260E-06  7.588321783620E-07  3.470415874389E-08
  1.239947266631E-06  3.622073191254E-06  6.508137240803E-06  9.341603981831E-06
  1.170463325114E-05  1.332605525269E-05  1.407631777696E-05  1.395152914806E-05
  1.304933721705E-05  1.153974370816E-05  9.634039910735E-06  7.554870494915E-06
  5.510014516299E-06  3.671863093162E-06  2.163834049829E-06  1.054167714611E-06
  3.567716992606E-07  3.809932456611E-08  2.851943463206E-08  2.363107997808E-07
  5.623163721102E-07  9.134207842025E-07  1.213343134142E-06  1.409718392522E-06
  1.477009857429E-06  1.415377850212E-06  1.246152030161E-06  1.004951428087E-06
  7.337206809902E-07  4.729806140078E-07  2.554316712131E-07  1.017323378795E-07
  1.885674325985E-08  0.000000000000E+00  0.000000000000E+00  0.000000000000E+00
  0.000000000000E+00  0.000000000000E+00  0.000000000000E+00  0.000000000000E+00
  0.000000000000E+00  0.000000000000E+00  0.000000000000E+00  0.000000000000E+00
  0.000000000000E+00  0.000000000000E+00  0.000000000000E+00  0.000000000000E+00
  0.000000000000E+00  0.000000000000E+00  0.000000000000E+00  0.000000000000E+00
  0.000000000000E+00  0.000000000000E+00
</data>
</radfunc>
</pseudocore-charge>
<semilocal-potentials set="lj">
<slps n="5" l="s" j="0.5" rc="2.15444032262" eref="-1.23702807920">
<radfunc>
<data npts="290">
  6.162536033491E+01  6.158334116642E+01  6.145800814595E+01  6.124982921844E+01
  6.094642593006E+01  6.056282148178E+01  6.007956473066E+01  5.953381328218E+01
  5.892967702268E+01  5.823754829407E+01  5.747294581810E+01  5.665997982901E+01
  5.570175054159E+01  5.472826776025E+01  5.378249073603E+01  5.272476064625E+01
  5.154679953526E+01  5.046786055683E+01  4.929642914817E+01  4.802950987162E+01
  4.666506617331E+01  4.550266422148E+01  4.427743885722E+01  4.299018762607E+01
  4.164238367920E+01  4.023621885577E+01  3.877463304430E+01  3.764427131982E+01
  3.648664217837E+01  3.530381982660E+01  3.409810225361E+01  3.287199764743E+01
  3.162820694839E+01  3.036960271644E+01  2.909920460589E+01  2.782015185391E+01
  2.653567329158E+01  2.524905547407E+01  2.439175694433E+01  2.353595972601E+01
  2.268263789459E+01  2.183275498115E+01  2.098725972155E+01  2.014708194937E+01
  1.931312867025E+01  1.848628035235E+01  1.766738746422E+01  1.685726728762E+01
  1.605670102854E+01  1.526643124543E+01  1.448715960898E+01  1.371954500331E+01
  1.296420197381E+01  1.222169952250E+01  1.149256024762E+01  1.077725982024E+01
  1.007622678701E+01  9.389842685195E+00  8.718442453167E+00  8.062315117329E+00
  7.421704734565E+00  6.796811567870E+00  6.187793471860E+00  5.594767464297E+00
  5.017811459647E+00  4.456966140857E+00  3.912236946107E+00  3.645908467588E+00
  3.383596148100E+00  3.125291692493E+00  2.870985004522E+00  2.620664256544E+00
  2.374315959575E+00  2.131925033588E+00  1.893474877907E+00  1.658947441606E+00
  1.428323293778E+00  1.201581693579E+00  9.787006599465E-01  7.596570409013E-01
  5.444265823415E-01  3.329839962536E-01  1.253030282622E-01 -7.864347554760E-02
 -2.788835026013E-01 -4.754458086545E-01 -6.683598535161E-01 -8.576557377239E-01
 -1.043364140215E+00 -1.225516257031E+00 -1.404143741102E+00 -1.579278643125E+00
 -1.750953353593E+00 -1.919200545978E+00 -2.084053121110E+00 -2.245544152774E+00
 -2.403706834538E+00 -2.558574427856E+00 -2.710180211444E+00 -2.858557431965E+00
 -3.003739256049E+00 -3.145758723660E+00 -3.284648702836E+00 -3.420441845837E+00
 -3.553170546711E+00 -3.682866900311E+00 -3.809562662793E+00 -3.933289213615E+00
 -4.054077519064E+00 -4.171958097336E+00 -4.286960985200E+00 -4.399115706251E+00
 -4.508451240779E+00 -4.614995997269E+00 -4.718777785524E+00 -4.819823791415E+00
 -4.918160553249E+00 -5.013813939721E+00 -5.106809129424E+00 -5.197170591858E+00
 -5.284922069879E+00 -5.370086563504E+00 -5.452686314985E+00 -5.532742795029E+00
 -5.610276690050E+00 -5.685307890323E+00 -5.757855478878E+00 -5.827937721014E+00
 -5.895572054257E+00 -5.960775078648E+00 -6.023562547209E+00 -6.083949356492E+00
 -6.141949537123E+00 -6.197576244287E+00 -6.250841748145E+00 -6.301757424222E+00
 -6.350333743842E+00 -6.396580264764E+00 -6.440505622201E+00 -6.482117520495E+00
 -6.521422725744E+00 -6.558427059756E+00 -6.593135395751E+00 -6.625551656262E+00
 -6.655678813746E+00 -6.683518894430E+00 -6.709072985959E+00 -6.732341249415E+00
 -6.753322936296E+00 -6.772016411045E+00 -6.788419179721E+00 -6.802527925373E+00
 -6.814338550690E+00 -6.823846228454E+00 -6.831045460290E+00 -6.835930144190E+00