<?xml version="1.0" encoding="UTF-8" ?>
<psml version="1.1" energy_unit="hartree" length_unit="bohr"
 uuid="cd5a0e50-53b4-11e8-7729-921efded7199"
 xmlns="http://esl.cecam.org/PSML/ns/1.1">
<provenance creator="ONCVPSP-3.3.0+psml-3.3.0-73 (fully-relativistic)"
 date="2018-05-09">
<annotation action="semilocal-pseudopotential-generation"
 action-cont="projectors-generation" />
<input-file name="oncvpsp-input">
<![CDATA[# atsym z nc nv iexc psfile
Ba 56 9 3 -116133 upf
# n l f
1 0 2.0
2 0 2.0
2 1 6.0
3 0 2.0
3 1 6.0
3 2 10.0
4 0 2.0
4 1 6.0
4 2 10.0
5 0 2.0
5 1 6.0
6 0 2.0
# lmax
2
# l rc ep ncon nbas qcut
0 1.95 0.0 3 8 5.2
1 1.8 0.0 4 8 6.6
2 1.9 0.0 4 9 6.8
# lloc lpopt rc5 dvloc0
4 5 1.8 0.0
# l nproj debl
0 2 1.0
1 2 2.5
2 2 3.0
# icmod fcfact rcfact
3 5.0 1.25
# epsh1 epsh2 depsh
-12.0 12.0 0.02
# rlmax drl
6.0 0.01
 0
]]>
</input-file>
</provenance>
<pseudo-atom-spec atomic-label="Ba" atomic-number="56" z-pseudo="10"
 flavor="Hamann&apos;s oncvpsp" relativity="dirac" spin-dft="no"
 core-corrections="yes">
<annotation pseudo-energy="-25.6517847587" />
<exchange-correlation>
<annotation oncvpsp-xc-code="-116133" oncvpsp-xc-type="libxc-interface" />
<libxc-info number-of-functionals="2">
<functional name="Perdew, Burke &amp; Ernzerhof SOL (GGA)" type="exchange"
 id="116" />
<functional name="Perdew, Burke &amp; Ernzerhof SOL (GGA)" type="correlation"
 id="133" />
</libxc-info>
</exchange-correlation>
<valence-configuration total-valence-charge="10">
<shell n="5" l="s" occupation="2" />
<shell n="5" l="p" occupation="6" />
<shell n="6" l="s" occupation="2" />
</valence-configuration>
</pseudo-atom-spec>
<grid npts="457">
<annotation type="sampled from oncvpsp log grid"
 recipe="r(i:1..N) = r1*exp(a*(i-1)) + r=0; resampled"
 recipe-cont="r1: scale; a: step" scale="0.892857142857E-05"
 step="0.119285708653E-01" delta="0.500000000000E-02" rmax="44.0559055307" />
<grid-data>
  0.000000000000E+00  5.030765996809E-03  1.004856027829E-02  1.507444276529E-02
  2.031206510006E-02  2.547908439618E-02  3.083699266043E-02  3.600963173750E-02
  4.105861707579E-02  4.626040627112E-02  5.150318121329E-02  5.666020677615E-02
  6.233360651298E-02  6.776194178895E-02  7.278953042278E-02  7.819014035445E-02
  8.399144785162E-02  8.915334250897E-02  9.463247370808E-02  1.004483379769E-01
  1.066216300490E-01  1.118323285593E-01  1.172976787660E-01  1.230301257351E-01
  1.290427227344E-01  1.353491609572E-01  1.419638006982E-01  1.471360711987E-01
  1.524967867957E-01  1.580528132467E-01  1.638112664542E-01  1.697795215795E-01
  1.759652224887E-01  1.823762915423E-01  1.890209397420E-01  1.959076772469E-01
  2.030453242728E-01  2.104430223891E-01  2.155239587216E-01  2.207275691810E-01
  2.260568156113E-01  2.315147313674E-01  2.371044230416E-01  2.428290722315E-01
  2.486919373514E-01  2.546963554868E-01  2.608457442937E-01  2.671436039439E-01
  2.735935191176E-01  2.801991610431E-01  2.869642895874E-01  2.938927553952E-01
  3.009885020814E-01  3.082555684757E-01  3.156980909209E-01  3.233203056281E-01
  3.311265510872E-01  3.391212705367E-01  3.473090144925E-01  3.556944433384E-01
  3.642823299784E-01  3.730775625534E-01  3.820851472237E-01  3.913102110182E-01
  4.007580047531E-01  4.104339060198E-01  4.203434222468E-01  4.253875433137E-01
  4.304921938335E-01  4.356581001595E-01  4.408859973614E-01  4.461766293297E-01
  4.515307488817E-01  4.569491178683E-01  4.624325072827E-01  4.679816973701E-01
  4.735974777385E-01  4.792806474714E-01  4.850320152411E-01  4.908523994239E-01
  4.967426282170E-01  5.027035397556E-01  5.087359822327E-01  5.148408140195E-01
  5.210189037877E-01  5.272711306332E-01  5.335983842008E-01  5.400015648112E-01
  5.464815835889E-01  5.530393625920E-01  5.596758349431E-01  5.663919449624E-01
  5.731886483020E-01  5.800669120816E-01  5.870277150266E-01  5.940720476069E-01
  6.012009121782E-01  6.084153231243E-01  6.157163070018E-01  6.231049026858E-01
  6.305821615181E-01  6.381491474563E-01  6.458069372257E-01  6.535566204725E-01
  6.613992999181E-01  6.693360915171E-01  6.773681246153E-01  6.854965421107E-01
  6.937225006161E-01  7.020471706235E-01  7.104717366709E-01  7.189973975110E-01
  7.276253662811E-01  7.363568706765E-01  7.451931531246E-01  7.541354709621E-01
  7.631850966137E-01  7.723433177730E-01  7.816114375863E-01  7.909907748373E-01
  8.004826641354E-01  8.100884561050E-01  8.198095175783E-01  8.296472317892E-01
  8.396029985707E-01  8.496782345535E-01  8.598743733682E-01  8.701928658486E-01
  8.806351802388E-01  8.912028024016E-01  9.018972360304E-01  9.127200028628E-01
  9.236726428972E-01  9.347567146119E-01  9.459737951873E-01  9.573254807295E-01
  9.688133864983E-01  9.804391471363E-01  9.922044169019E-01  1.004110869905E+00
  1.016160200344E+00  1.028354122748E+00  1.040694372221E+00  1.053182704687E+00
  1.065820897144E+00  1.078610747909E+00  1.091554076884E+00  1.104652725807E+00
  1.117908558516E+00  1.131323461219E+00  1.144899342753E+00  1.158638134866E+00
  1.172541792485E+00  1.186612293995E+00  1.200851641522E+00  1.215261861221E+00
  1.229845003555E+00  1.244603143598E+00  1.259538381321E+00  1.274652841897E+00
  1.289948676000E+00  1.305428060112E+00  1.321093196833E+00  1.336946315195E+00
  1.352989670978E+00  1.369225547029E+00  1.385656253594E+00  1.402284128637E+00
  1.419111538180E+00  1.436140876639E+00  1.453374567158E+00  1.470815061964E+00
  1.488464842708E+00  1.506326420820E+00  1.524402337870E+00  1.542695165924E+00
  1.561207507916E+00  1.579941998011E+00  1.598901301987E+00  1.618088117611E+00
  1.637505175022E+00  1.657155237122E+00  1.677041099968E+00  1.697165593167E+00
  1.717531580285E+00  1.738141959249E+00  1.758999662760E+00  1.780107658713E+00
  1.801468950617E+00  1.823086578025E+00  1.844963616961E+00  1.867103180365E+00
  1.889508418529E+00  1.912182519551E+00  1.935128709786E+00  1.958350254303E+00
  1.981850457355E+00  2.005632662843E+00  2.029700254797E+00  2.054056657855E+00
  2.078705337749E+00  2.103649801802E+00  2.128893599424E+00  2.154440322617E+00
  2.180293606488E+00  2.206457129766E+00  2.232934615323E+00  2.259729830707E+00
  2.286846588676E+00  2.314288747740E+00  2.342060212713E+00  2.370164935265E+00
  2.398606914488E+00  2.427390197462E+00  2.456518879832E+00  2.485997106390E+00
  2.515829071666E+00  2.546019020526E+00  2.576571248773E+00  2.607490103758E+00
  2.638779985003E+00  2.670445344823E+00  2.702490688961E+00  2.734920577229E+00
  2.767739624155E+00  2.800952499645E+00  2.834563929641E+00  2.868578696797E+00
  2.903001641158E+00  2.937837660852E+00  2.973091712782E+00  3.008768813336E+00
  3.044874039096E+00  3.081412527565E+00  3.118389477896E+00  3.155810151630E+00
  3.193679873450E+00  3.232004031931E+00  3.270788080314E+00  3.310037537278E+00
  3.349757987726E+00  3.389955083578E+00  3.430634544581E+00  3.471802159116E+00
  3.513463785026E+00  3.555625350446E+00  3.598292854651E+00  3.641472368907E+00
  3.685170037334E+00  3.729392077782E+00  3.774144782715E+00  3.819434520108E+00
  3.865267734349E+00  3.911650947161E+00  3.958590758527E+00  4.006093847630E+00
  4.054166973801E+00  4.102816977487E+00  4.152050781217E+00  4.201875390591E+00
  4.252297895278E+00  4.303325470022E+00  4.354965375662E+00  4.407224960170E+00
  4.460111659692E+00  4.513632999608E+00  4.567796595604E+00  4.622610154751E+00
  4.678081476608E+00  4.734218454327E+00  4.791029075779E+00  4.848521424688E+00
  4.906703681785E+00  4.965584125966E+00  5.025171135478E+00  5.085473189103E+00
  5.146498867373E+00  5.208256853781E+00  5.270755936027E+00  5.334005007259E+00
  5.398013067346E+00  5.462789224154E+00  5.528342694844E+00  5.594682807182E+00
  5.661819000868E+00  5.729760828879E+00  5.798517958825E+00  5.868100174331E+00
  5.938517376423E+00  6.009779584940E+00  6.081896939959E+00  6.154879703239E+00
  6.228738259678E+00  6.303483118794E+00  6.379124916219E+00  6.455674415214E+00
  6.533142508197E+00  6.611540218295E+00  6.690878700915E+00  6.771169245326E+00
  6.852423276269E+00  6.934652355585E+00  7.017868183852E+00  7.102082602058E+00
  7.187307593283E+00  7.273555284402E+00  7.360837947815E+00  7.449168003189E+00
  7.538558019227E+00  7.629020715458E+00  7.720568964043E+00  7.813215791612E+00
  7.906974381111E+00  8.001858073684E+00  8.097880370569E+00  8.195054935015E+00
  8.293395594236E+00  8.392916341366E+00  8.493631337463E+00  8.595554913512E+00
  8.698701572474E+00  8.803085991344E+00  8.908723023240E+00  9.015627699519E+00
  9.123815231913E+00  9.233301014696E+00  9.344100626873E+00  9.456229834395E+00
  9.569704592408E+00  9.684541047517E+00  9.800755540087E+00  9.918364606568E+00
  1.003738498185E+01  1.015783360163E+01  1.027972760485E+01  1.040308433611E+01
  1.052792134814E+01  1.065425640432E+01  1.078210748117E+01  1.091149277094E+01
  1.104243068419E+01  1.117493985241E+01  1.130903913063E+01  1.144474760020E+01
  1.158208457140E+01  1.172106958626E+01  1.186172242130E+01  1.200406309035E+01
  1.214811184744E+01  1.229388918961E+01  1.244141585988E+01  1.259071285020E+01
  1.274180140440E+01  1.289470302125E+01  1.304943945751E+01  1.320603273100E+01
  1.336450512377E+01  1.352487918526E+01  1.368717773548E+01  1.385142386831E+01
  1.401764095473E+01  1.418585264618E+01  1.435608287794E+01  1.452835587247E+01
  1.470269614294E+01  1.487912849666E+01  1.505767803862E+01  1.523837017508E+01
  1.542123061718E+01  1.560628538459E+01  1.579356080920E+01  1.598308353891E+01
  1.617488054138E+01  1.636897910788E+01  1.656540685717E+01  1.676419173946E+01
  1.696536204033E+01  1.716894638481E+01  1.737497374143E+01  1.758347342633E+01
  1.779447510744E+01  1.800800880873E+01  1.822410491444E+01  1.844279417341E+01
  1.866410770349E+01  1.888807699593E+01  1.911473391989E+01  1.934411072692E+01
  1.957624005565E+01  1.981115493632E+01  2.004888879555E+01  2.028947546110E+01
  2.053294916663E+01  2.077934455663E+01  2.102869669131E+01  2.128104105161E+01
  2.153641354422E+01  2.179485050676E+01  2.205638871284E+01  2.232106537739E+01
  2.258891816192E+01  2.285998517986E+01  2.313430500202E+01  2.341191666205E+01
  2.369285966199E+01  2.397717397793E+01  2.426490006567E+01  2.455607886646E+01
  2.485075181285E+01  2.514896083461E+01  2.545074836462E+01  2.575615734500E+01
  2.606523123314E+01  2.637801400794E+01  2.669455017603E+01  2.701488477814E+01
  2.733906339548E+01  2.766713215623E+01  2.799913774210E+01  2.833512739501E+01
  2.867514892375E+01  2.901925071083E+01  2.936748171936E+01  2.971989150000E+01
  3.007653019800E+01  3.043744856037E+01  3.080269794310E+01  3.117233031841E+01
  3.154639828223E+01  3.192495506162E+01  3.230805452236E+01  3.269575117663E+01
  3.308810019075E+01  3.348515739304E+01  3.388697928175E+01  3.429362303313E+01
  3.470514650953E+01  3.512160826765E+01  3.554306756686E+01  3.596958437766E+01
  3.640121939019E+01  3.683803402287E+01  3.728009043115E+01  3.772745151632E+01
  3.818018093452E+01  3.863834310573E+01  3.910200322300E+01  3.957122726168E+01
  4.004608198882E+01  4.052663497268E+01  4.101295459236E+01  4.150511004746E+01
  4.200317136803E+01  4.250720942445E+01  4.301729593754E+01  4.353350348879E+01
  4.405590553066E+01
</grid-data>
</grid>
<valence-charge total-charge="10" is-unscreening-charge="yes"
 rescaled-to-z-pseudo="no">
<radfunc>
<data npts="457">
  2.318579768312E-03  2.324304997901E-03  2.341455375321E-03  2.370187406886E-03
  2.412617095185E-03  2.467222507667E-03  2.537576023262E-03  2.619184265696E-03
  2.712282284588E-03  2.822642813551E-03  2.949359310324E-03  3.089889980481E-03
  3.263633140356E-03  3.449668500276E-03  3.640202962523E-03  3.865506518919E-03
  4.132729344470E-03  4.393756104099E-03  4.696230476830E-03  5.047649448101E-03
  5.457059908837E-03  5.833627465320E-03  6.260940228656E-03  6.746799511727E-03
  7.300352233547E-03  7.932341701005E-03  8.655406959314E-03  9.266336669002E-03
  9.944067995555E-03  1.069681420556E-02  1.153388699875E-02  1.246585012017E-02
  1.350469464057E-02  1.466403887295E-02  1.595935626317E-02  1.740823499714E-02
  1.903067350499E-02  2.084941651206E-02  2.218360515408E-02  2.362499192625E-02
  2.518286821172E-02  2.686735958003E-02  2.868950024148E-02  3.066131376214E-02
  3.279590047885E-02  3.510753206622E-02  3.761175371665E-02  4.032549439814E-02
  4.326718565194E-02  4.645688938063E-02  4.991643505616E-02  5.366956674268E-02
  5.774210027895E-02  6.216209089636E-02  6.696001145605E-02  7.216894136976E-02
  7.782476611675E-02  8.396638707887E-02  9.063594118061E-02  9.787902953275E-02
  1.057449539296E-01  1.142869596308E-01  1.235624823597E-01  1.336333968597E-01
  1.445662636570E-01  1.564325698724E-01  1.693089589865E-01  1.761513484365E-01
  1.832774433930E-01  1.906983651605E-01  1.984255923472E-01  2.064709647605E-01
  2.148466865343E-01  2.235653283903E-01  2.326398289287E-01  2.420834948361E-01
  2.519099998890E-01  2.621333826244E-01  2.727680425404E-01  2.838287346788E-01
  2.953305624353E-01  3.072889684320E-01  3.197197232771E-01  3.326389120287E-01
  3.460629181694E-01  3.600084048876E-01  3.744922934547E-01  3.895317384767E-01
  4.051440997899E-01  4.213469107634E-01  4.381578427631E-01  4.555946655252E-01
  4.736752031816E-01  4.924172856751E-01  5.118386953009E-01  5.319571081066E-01
  5.527900298863E-01  5.743547265063E-01  5.966681483054E-01  6.197468483202E-01
  6.436068940987E-01  6.682637728806E-01  6.937322899383E-01  7.200264599012E-01
  7.471593909089E-01  7.751431614751E-01  8.039886899803E-01  8.337055967585E-01
  8.643020587909E-01  8.957846570799E-01  9.281582168399E-01  9.614256407138E-01
  9.955877353039E-01  1.030643031394E+00  1.066587598338E+00  1.103414853184E+00
  1.141115365235E+00  1.179676656845E+00  1.219083001398E+00  1.259315219537E+00
  1.300350474866E+00  1.342162070485E+00  1.384719247891E+00  1.427986989905E+00
  1.471925829488E+00  1.516491666430E+00  1.561635594091E+00  1.607303738499E+00
  1.653437112307E+00  1.699971486195E+00  1.746837280504E+00  1.793959479947E+00
  1.841257574377E+00  1.888645528668E+00  1.936031784786E+00  1.983319299191E+00
  2.030405618656E+00  2.077182997554E+00  2.123538559566E+00  2.169354506587E+00
  2.214508377458E+00  2.258873358818E+00  2.302318650129E+00  2.344709884483E+00
  2.385909606379E+00  2.425777807137E+00  2.464172518029E+00  2.500950460563E+00
  2.535967752625E+00  2.569080668441E+00  2.600146449452E+00  2.629024162359E+00
  2.655575599657E+00  2.679666217038E+00  2.701166101120E+00  2.719950959972E+00
  2.735903128021E+00  2.748912576001E+00  2.758877915827E+00  2.765707389504E+00
  2.769319830571E+00  2.769645586081E+00  2.766627386792E+00  2.760221153064E+00
  2.750396724017E+00  2.737138497786E+00  2.720445971179E+00  2.700334167836E+00
  2.676833944979E+00  2.649992170114E+00  2.619871760583E+00  2.586551580615E+00
  2.550126192490E+00  2.510705460630E+00  2.468414009686E+00  2.423390540151E+00
  2.375787007437E+00  2.325767672810E+00  2.273508036912E+00  2.219193668798E+00
  2.163018945379E+00  2.105185717857E+00  2.045901923051E+00  1.985380158458E+00
  1.923836240396E+00  1.861487764593E+00  1.798552688171E+00  1.735247951099E+00
  1.671788153877E+00  1.608384037200E+00  1.545239963351E+00  1.482551026754E+00
  1.420502045717E+00  1.359267304079E+00  1.299009830397E+00  1.239880943696E+00
  1.182015750530E+00  1.125520547080E+00  1.070477149502E+00  1.016963409983E+00
  9.650433047317E-01  9.147703787843E-01  8.661877516915E-01  8.193286255773E-01
  7.742167839396E-01  7.308671127571E-01  6.892861388118E-01  6.494725804022E-01
  6.114179058866E-01  5.751068957804E-01  5.405182044381E-01  5.076249175786E-01
  4.763951024076E-01  4.467923471567E-01  4.187762873688E-01  3.923031163117E-01
  3.673260776278E-01  3.437959380719E-01  3.216614388315E-01  3.008697240408E-01
  2.813667453651E-01  2.630976417597E-01  2.460070937304E-01  2.300396516283E-01
  2.151400377119E-01  2.012534218964E-01  1.883256712934E-01  1.763035738124E-01
  1.651350362667E-01  1.547692575793E-01  1.451568778446E-01  1.362501041480E-01
  1.280028141965E-01  1.203706389588E-01  1.133110256604E-01  1.067832826158E-01
  1.007486075126E-01  9.517010086818E-02  9.001276644776E-02  8.524350045316E-02
  8.083107123270E-02  7.674609112761E-02  7.296098185216E-02  6.944993452309E-02
  6.618886514222E-02  6.315536603887E-02  6.032865354139E-02  5.768951200512E-02
  5.522023429098E-02  5.290455885460E-02  5.072760373990E-02  4.867579793277E-02
  4.673681067929E-02  4.489947948017E-02  4.315373752340E-02  4.149054131022E-02
  3.990179917458E-02  3.838030130889E-02  3.691965180428E-02  3.551420310483E-02
  3.415899317305E-02  3.284968557232E-02  3.158251259585E-02  3.035422150903E-02
  2.916202392349E-02  2.800354828354E-02  2.687679541797E-02  2.578009708936E-02
  2.471207745788E-02  2.367161736612E-02  2.265782134306E-02  2.166998721985E-02
  2.070757824534E-02  1.977019758596E-02  1.885756509151E-02  1.796949620574E-02
  1.710588289829E-02  1.626667649219E-02  1.545187225958E-02  1.466149565669E-02
  1.389559006907E-02  1.315420593888E-02  1.243739114927E-02  1.174518254635E-02
  1.107759848777E-02  1.043463231899E-02  9.816246693819E-03  9.222368673791E-03
  8.652885561285E-03  8.107641441845E-03  7.586434429928E-03  7.089014627501E-03
  6.615082807495E-03  6.164289887841E-03  5.736237109879E-03  5.330477041664E-03
  4.946515329454E-03  4.583813175575E-03  4.241790485502E-03  3.919829605550E-03
  3.617279554746E-03  3.333460641630E-03  3.067669349568E-03  2.819183372836E-03
  2.587266689690E-03  2.371174567072E-03  2.170158403412E-03  1.983470329998E-03
  1.810367506561E-03  1.650116062095E-03  1.501994646741E-03  1.365297574302E-03
  1.239337547159E-03  1.123447965922E-03  1.016984834915E-03  9.193282816116E-04
  8.298837135247E-04  7.480826398999E-04  6.733831881094E-04  6.052703459930E-04
  5.432559617964E-04  4.868785329434E-04  4.357028138325E-04  3.893192712971E-04
  3.473434144624E-04  3.094150235612E-04  2.751972999553E-04  2.443759572123E-04
  2.166582707025E-04  1.917721008458E-04  1.694649029190E-04  1.495027342616E-04
  1.316692678179E-04  1.157648192552E-04  1.016053933990E-04  8.902175443653E-05
  7.785852325430E-05  6.797330437392E-05  5.923584422419E-05  5.152722191330E-05
  4.473907321849E-05  3.877284817247E-05  3.353910237177E-05  2.895682194344E-05
  2.495278196387E-05  2.146093801409E-05  1.842185046554E-05  1.578214101241E-05
  1.349398089343E-05  1.151461017449E-05  9.805887391901E-06  8.333868783202E-06
  7.068416260544E-06  5.982833210409E-06  5.053527135960E-06  4.259698095745E-06
  3.583051836815E-06  3.007536473055E-06  2.519101521761E-06  2.105478084089E-06
  1.755978938339E-06  1.461317309119E-06  1.213443080045E-06  1.005395232151E-06
  8.311693138408E-07  6.855987801082E-07  5.642490777024E-07  4.633233979497E-07
  3.795790687907E-07  3.102536111957E-07  2.529995413894E-07  2.058270582349E-07
  1.670538137891E-07  1.352610236253E-07  1.092552313060E-07  8.803509777830E-08
  7.076264094819E-08  5.673840286360E-08  4.538007149739E-08  3.620413083695E-08
  2.881015671852E-08  2.286741650795E-08  1.810346830884E-08  1.429448990154E-08
  1.125709915484E-08  8.841456309110E-09  6.925464435517E-09  5.409907678386E-09
  4.214387748484E-09  3.273937723536E-09  2.536208701219E-09  1.959139412341E-09
  1.509031707918E-09  1.158966047780E-09  8.875008978436E-10  6.776084370709E-10
  5.158063229786E-10  3.914515959743E-10  2.961682370795E-10  2.233845398972E-10
  1.679604150432E-10  1.258881030258E-10  9.405260981642E-11  7.004056944008E-11
  5.198824306588E-11  3.846103997861E-11  2.835834130364E-11  2.083856500730E-11
  1.526036745321E-11  1.113666456197E-11  8.098801811655E-12  5.868730380409E-12
  4.237476633154E-12  3.048540813721E-12  2.185142496114E-12  1.560457065293E-12
  1.110169264607E-12  7.868150111053E-13  5.554981595392E-13  3.906604000969E-13
  2.736546942889E-13  1.909294248169E-13  1.326748835086E-13  9.181838024067E-14
  6.328117063126E-14  4.343121512297E-14  2.968181232622E-14  2.019844302156E-14
  1.368554902953E-14  9.232109301890E-15  6.200279659237E-15  4.145435955305E-15
  2.759017195311E-15  1.827848748825E-15  1.205324123789E-15  7.910810544157E-16
  5.167341449714E-16  3.359058562826E-16  2.172936944506E-16  1.398718731726E-16
  8.958631065157E-17  5.708931958037E-17  3.619459145372E-17  2.282871197844E-17
  1.432323284015E-17  8.939130419361E-18  5.549021454938E-18  3.425913811541E-18
  2.103521725287E-18  1.284397330004E-18  7.798382260258E-19  4.707961251644E-19
  2.825886936342E-19  0.000000000000E+00  0.000000000000E+00  0.000000000000E+00
  0.000000000000E+00
</data>
</radfunc>
</valence-charge>
<pseudocore-charge matching-radius="1.25953838132"
 number-of-continuous-derivatives="4">
<annotation model-charge-form="Teter function with specified parameters" />
<radfunc>
<data npts="290">
  1.474362403230E+01  1.474314843688E+01  1.474172663837E+01  1.473935430998E+01
  1.473587268454E+01  1.473142921278E+01  1.472576435610E+01  1.471927524694E+01
  1.471197592478E+01  1.470345972299E+01  1.469385528273E+01  1.468340962462E+01
  1.467077668606E+01  1.465757262263E+01  1.464437160758E+01  1.462915286256E+01
  1.461161043884E+01  1.459496462733E+01  1.457623120304E+01  1.455515138411E+01
  1.453143512620E+01  1.451034684369E+01  1.448718009190E+01  1.446173365841E+01
  1.443378761684E+01  1.440310174837E+01  1.436941386520E+01  1.434200682119E+01
  1.431262084477E+01  1.428111738763E+01  1.424734886891E+01  1.421115819064E+01
  1.417237824414E+01  1.413083141082E+01  1.408632906097E+01  1.403867105562E+01
  1.398764525683E+01  1.393302705362E+01  1.389450238157E+01  1.385420213026E+01
  1.381204995452E+01  1.376796677694E+01  1.372187074757E+01  1.367367720996E+01
  1.362329867450E+01  1.357064480024E+01  1.351562238635E+01  1.345813537445E+01
  1.339808486335E+01  1.333536913766E+01  1.326988371196E+01  1.320152139233E+01
  1.313017235721E+01  1.305572425959E+01  1.297806235294E+01  1.289706964306E+01
  1.281262706861E+01  1.272461371282E+01  1.263290704941E+01  1.253738322568E+01
  1.243791738578E+01  1.233438403775E+01  1.222665746742E+01  1.211461220293E+01
  1.199812353330E+01  1.187706808478E+01  1.175132445864E+01  1.168665735348E+01
  1.162077393400E+01  1.155365990507E+01  1.148530123924E+01  1.141568420488E+01
  1.134479539544E+01  1.127262176000E+01  1.119915063501E+01  1.112436977730E+01
  1.104826739840E+01  1.097083220011E+01  1.089205341139E+01  1.081192082660E+01
  1.073042484496E+01  1.064755651146E+01  1.056330755901E+01  1.047767045190E+01
  1.039063843063E+01  1.030220555798E+01  1.021236676640E+01  1.012111790660E+01
  1.002845579739E+01  9.934378276733E+00  9.838884253898E+00  9.741973762710E+00
  9.643648015854E+00  9.543909460129E+00  9.442761832605E+00  9.340210217579E+00
  9.236261104247E+00  9.130922444987E+00  9.024203714135E+00  8.916115967127E+00
  8.806671899869E+00  8.695885908191E+00  8.583774147207E+00  8.470354590417E+00
  8.355647088360E+00  8.239673426595E+00  8.122457382823E+00  8.004024782877E+00
  7.884403555360E+00  7.763623784651E+00  7.641717762000E+00  7.518720034415E+00
  7.394667451021E+00  7.269599206579E+00  7.143556881792E+00  7.016584480065E+00
  6.888728460324E+00  6.760037765505E+00  6.630563846317E+00  6.500360679850E+00
  6.369484782608E+00  6.237995217509E+00  6.105953594423E+00  5.973424063764E+00
  5.840473302694E+00  5.707170493451E+00  5.573587293344E+00  5.439797795927E+00
  5.305878482914E+00  5.171908166339E+00  5.037967920549E+00  4.904141003570E+00
  4.770512767438E+00  4.637170557108E+00  4.504203597571E+00  4.371702868841E+00
  4.239760968533E+00  4.108471961766E+00  3.977931218200E+00  3.848235236061E+00
  3.719481453063E+00  3.591768044230E+00  3.465193706659E+00  3.339857431390E+00
  3.215858262591E+00  3.093295044405E+00  2.972266155887E+00  2.852869234558E+00
  2.735200889242E+00  2.619356402953E+00  2.505429426741E+00  2.393511665511E+00
  2.283692556989E+00  2.176058945138E+00  2.070694749457E+00  1.967680631734E+00
  1.867093661984E+00  1.769006985417E+00  1.673489492415E+00  1.580605493638E+00
  1.490414402479E+00  1.402970427218E+00  1.318322275295E+00  1.236512872230E+00
  1.157579097770E+00  1.081551541889E+00  1.008454283288E+00  9.383046930653E-01
  8.711132661502E-01  8.068834830985E-01  7.456117047015E-01  6.872871017771E-01
  6.318916223304E-01  5.793999980858E-01  5.297797921531E-01  4.829914893172E-01
  4.389886301273E-01  3.977179896115E-01  3.591198010490E-01  3.231280248093E-01
  2.896706618101E-01  2.586701106520E-01  2.300435669820E-01  2.037034631004E-01
  1.795579452813E-01  1.575113857253E-01  1.374649255156E-01  1.193170444092E-01
  1.029641527794E-01  8.830120054587E-02  7.522229748172E-02  6.362133890746E-02
  5.339263045716E-02  4.443150536128E-02  3.663492753470E-02  2.990207370172E-02
  2.413488783895E-02  1.923860138081E-02  1.512221291589E-02  1.169892150836E-02
  8.886508309417E-03  6.607661774946E-03  4.790242574752E-03  3.367485154447E-03
  2.278133883692E-03  1.466512776848E-03  8.825288857912E-04  4.816106173072E-04
  2.245833936481E-04  7.748622698127E-05  1.133388687375E-05  1.830374021431E-06
  2.904034229673E-05  7.702590481123E-05  1.334568900045E-04  1.892030557952E-04
  2.379170028950E-04  2.756165372622E-04  3.002750076664E-04  3.114276861766E-04
  3.098015739630E-04  2.969751175741E-04  2.750732359532E-04  2.465018184150E-04
  2.137244988312E-04  1.790830881209E-04  1.446616075475E-04  1.121924639740E-04
  8.300200049846E-05  5.799149517183E-05  3.764871551732E-05  2.208440858487E-05
  1.108764652835E-05  4.193775125260E-06  7.588321783620E-07  3.470415874389E-08
  1.239947266631E-06  3.622073191254E-06  6.508137240803E-06  9.341603981831E-06
  1.170463325114E-05  1.332605525269E-05  1.407631777696E-05  1.395152914806E-05
  1.304933721705E-05  1.153974370816E-05  9.634039910735E-06  7.554870494915E-06
  5.510014516299E-06  3.671863093162E-06  2.163834049829E-06  1.054167714611E-06
  3.567716992606E-07  3.809932456611E-08  2.851943463206E-08  2.363107997808E-07
  5.623163721102E-07  9.134207842025E-07  1.213343134142E-06  1.409718392522E-06
  1.477009857429E-06  1.415377850212E-06  1.246152030161E-06  1.004951428087E-06
  7.337206809902E-07  4.729806140078E-07  2.554316712131E-07  1.017323378795E-07
  1.885674325985E-08  0.000000000000E+00  0.000000000000E+00  0.000000000000E+00
  0.000000000000E+00  0.000000000000E+00  0.000000000000E+00  0.000000000000E+00
  0.000000000000E+00  0.000000000000E+00  0.000000000000E+00  0.000000000000E+00
  0.000000000000E+00  0.000000000000E+00  0.000000000000E+00  0.000000000000E+00
  0.000000000000E+00  0.000000000000E+00  0.000000000000E+00  0.000000000000E+00
  0.000000000000E+00  0.000000000000E+00
</data>
</radfunc>
</pseudocore-charge>
<semilocal-potentials set="lj">
<slps n="5" l="s" j="0.5" rc="1.95835025430" eref="-1.23702807920">
<radfunc>
<data npts="290">
  1.108408466716E+02  1.107194436934E+02  1.103579231854E+02  1.097594118214E+02
  1.088915226706E+02  1.078016069261E+02  1.064401671429E+02  1.049180210302E+02
  1.032517304340E+02  1.013664643176E+02  9.931266049841E+01  9.716147996963E+01
  9.466795304657E+01  9.218012303946E+01  8.980575572207E+01  8.719878647008E+01
  8.435398246317E+01  8.180081241485E+01  7.908388490408E+01  7.620809955749E+01
  7.318133115188E+01  7.065848046814E+01  6.805302760318E+01  6.537328121865E+01
  6.262872790278E+01  5.982992571785E+01  5.698836204262E+01  5.483646861535E+01
  5.267277538670E+01  5.050278401307E+01  4.833206397507E+01  4.616619605276E+01
  4.401071557129E+01  4.187105664305E+01  3.975249859516E+01  3.766011569080E+01
  3.559873113376E+01  3.357287619384E+01  3.224413545157E+01  3.093422036983E+01
  2.964421627874E+01  2.837513250783E+01  2.712790046456E+01  2.590337228597E+01
  2.470232004884E+01  2.352543551840E+01  2.237333040982E+01  2.124653713266E+01
  2.014550998461E+01  1.907062675771E+01  1.802219071821E+01  1.700043291977E+01
  1.600551480876E+01  1.503753108046E+01  1.409651274536E+01  1.318243036588E+01
  1.229519742519E+01  1.143467379190E+01  1.060066924645E+01  9.792947037776E+00
  9.011227441239E+00  8.255191292081E+00  7.524483471281E+00  6.818716323933E+00
  6.137472993196E+00  5.480310655888E+00  4.846763648699E+00  4.538694871682E+00
  4.236346476832E+00  3.939655152057E+00  3.648556699615E+00  3.362986119385E+00
  3.082877690161E+00  2.808165049000E+00  2.538781268635E+00  2.274658933001E+00
  2.015730210909E+00  1.761926927925E+00  1.513180636493E+00  1.269422684385E+00
  1.030584281526E+00  7.965965652837E-01  5.673906642862E-01  3.428977608583E-01
  1.230491521592E-01 -9.222368989021E-02 -3.029890597983E-01 -5.093149607205E-01
 -7.112690476077E-01 -9.089185711920E-01 -1.102330322716E+00 -1.291570579312E+00
 -1.476705049939E+00 -1.657798821792E+00 -1.834916307097E+00 -2.008121190218E+00
 -2.177476374995E+00 -2.343043932256E+00 -2.504885047438E+00 -2.663059968280E+00
 -2.817627952539E+00 -2.968647215718E+00 -3.116174878783E+00 -3.260266915884E+00
 -3.400978102093E+00 -3.538361961201E+00 -3.672470713626E+00 -3.803355224514E+00
 -3.931064952122E+00 -4.055647896611E+00 -4.177150549379E+00 -4.295617843105E+00
 -4.411093102696E+00 -4.523617997334E+00 -4.633232493881E+00 -4.739974811884E+00
 -4.843881380482E+00 -4.944986797517E+00 -5.043323791195E+00 -5.138923184650E+00
 -5.231813863808E+00 -5.322022748967E+00 -5.409574770521E+00 -5.494492849323E+00
 -5.576797882160E+00 -5.656508732902E+00 -5.733642229863E+00 -5.808213170001E+00
 -5.880234330590E+00 -5.949716489047E+00 -6.016668451659E+00 -6.081097091970E+00
 -6.143007399668E+00 -6.202402540820E+00 -6.259283930390E+00 -6.313651317964E+00
 -6.365502887649E+00 -6.414835373132E+00 -6.461644188856E+00 -6.505923578228E+00
 -6.547666779744E+00 -6.586866211760E+00 -6.623513676546E+00 -6.657600584033E+00
 -6.689118195431E+00 -6.718057886598E+00 -6.744411430680E+00 -6.768171299081E+00
 -6.789330979369E+00 -6.807885308089E+00 -6.823830815852E+00 -6.837166081290E+00
 -6.847892089676E+00 -6.856012591116E+00 -6.861534452240E+00 -6.864467994309E+00