<?xml version="1.0" encoding="UTF-8" ?>
<psml version="1.1" energy_unit="hartree" length_unit="bohr"
 uuid="2dc830c0-539f-11e8-7fb2-7893f76cae43"
 xmlns="http://esl.cecam.org/PSML/ns/1.1">
<provenance creator="ONCVPSP-3.3.0+psml-3.3.0-73 (fully-relativistic)"
 date="2018-05-09">
<annotation action="semilocal-pseudopotential-generation"
 action-cont="projectors-generation" />
<input-file name="oncvpsp-input">
<![CDATA[# atsym z nc nv iexc psfile
Ru 44 6 4 -116133 upf
# n l f
1 0 2.0
2 0 2.0
2 1 6.0
3 0 2.0
3 1 6.0
3 2 10.0
4 0 2.0
4 1 6.0
4 2 7.0
5 0 1.0
# lmax
2
# l rc ep ncon nbas qcut
0 1.35 0.0 4 8 8.7
1 1.4 0.0 4 8 9.0
2 1.3 0.0 4 7 9.0
# lloc lpopt rc5 dvloc0
4 5 1.3 0.0
# l nproj debl
0 2 1.0
1 2 2.5
2 2 1.5
# icmod fcfact
3 7.0 1.24
# epsh1 epsh2 depsh
-12.0 12.0 0.02
# rlmax drl
6.0 0.01
 0
]]>
</input-file>
</provenance>
<pseudo-atom-spec atomic-label="Ru" atomic-number="44" z-pseudo="16"
 flavor="Hamann&apos;s oncvpsp" relativity="dirac" spin-dft="no"
 core-corrections="yes">
<annotation pseudo-energy="-94.9005108571" />
<exchange-correlation>
<annotation oncvpsp-xc-code="-116133" oncvpsp-xc-type="libxc-interface" />
<libxc-info number-of-functionals="2">
<functional name="Perdew, Burke &amp; Ernzerhof SOL (GGA)" type="exchange"
 id="116" />
<functional name="Perdew, Burke &amp; Ernzerhof SOL (GGA)" type="correlation"
 id="133" />
</libxc-info>
</exchange-correlation>
<valence-configuration total-valence-charge="16">
<shell n="4" l="s" occupation="2" />
<shell n="4" l="p" occupation="6" />
<shell n="4" l="d" occupation="7" />
<shell n="5" l="s" occupation="1" />
</valence-configuration>
</pseudo-atom-spec>
<grid npts="457">
<annotation type="sampled from oncvpsp log grid"
 recipe="r(i:1..N) = r1*exp(a*(i-1)) + r=0; resampled"
 recipe-cont="r1: scale; a: step" scale="0.113636363636E-04"
 step="0.119285708653E-01" delta="0.500000000000E-02" rmax="44.1701864667" />
<grid-data>
  0.000000000000E+00  5.043815794335E-03  1.007462622473E-02  1.511354584145E-02
  2.012327525563E-02  2.524226985489E-02  3.055037921081E-02  3.567494135815E-02
  4.067699906245E-02  4.583044039319E-02  5.102448653004E-02  5.613358028248E-02
  6.175424878552E-02  6.713213057154E-02  7.297834632768E-02  7.839296543135E-02
  8.420932150924E-02  8.938460611162E-02  9.487795016675E-02  1.007089007765E-01
  1.068982063566E-01  1.121224214091E-01  1.176019487239E-01  1.233492656496E-01
  1.293774593142E-01  1.357002564259E-01  1.423320545300E-01  1.475177418904E-01
  1.528923631736E-01  1.584628019468E-01  1.642361925710E-01  1.702199293389E-01
  1.764216759446E-01  1.828493752993E-01  1.895112597039E-01  1.964158613929E-01
  2.035720234618E-01  2.109889111930E-01  2.160830274648E-01  2.213001360800E-01
  2.266432065655E-01  2.321152801448E-01  2.377194714686E-01  2.434589703877E-01
  2.493370437688E-01  2.553570373535E-01  2.615223776634E-01  2.678365739497E-01
  2.743032201911E-01  2.809259971394E-01  2.877086744144E-01  2.946551126494E-01
  3.017692656892E-01  3.090551828400E-01  3.165170111745E-01  3.241589978923E-01
  3.319854927375E-01  3.400009504741E-01  3.482099334224E-01  3.566171140549E-01
  3.652272776566E-01  3.740453250484E-01  3.830762753764E-01  3.923252689690E-01
  4.017975702630E-01  4.114985707995E-01  4.214337922928E-01  4.264909978004E-01
  4.316088897740E-01  4.367881964512E-01  4.420296548087E-01  4.473340106664E-01
  4.527020187944E-01  4.581344430199E-01  4.636320563361E-01  4.691956410122E-01
  4.748259887043E-01  4.805239005688E-01  4.862901873756E-01  4.921256696241E-01
  4.980311776596E-01  5.040075517915E-01  5.100556424130E-01  5.161763101220E-01
  5.223704258434E-01  5.286388709535E-01  5.349825374050E-01  5.414023278538E-01
  5.478991557881E-01  5.544739456575E-01  5.611276330054E-01  5.678611646015E-01
  5.746754985767E-01  5.815716045596E-01  5.885504638144E-01  5.956130693801E-01
  6.027604262127E-01  6.099935513272E-01  6.173134739432E-01  6.247212356305E-01
  6.322178904580E-01  6.398045051435E-01  6.474821592053E-01  6.552519451157E-01
  6.631149684571E-01  6.710723480786E-01  6.791252162555E-01  6.872747188506E-01
  6.955220154768E-01  7.038682796625E-01  7.123146990185E-01  7.208624754067E-01
  7.295128251116E-01  7.382669790129E-01  7.471261827611E-01  7.560916969542E-01
  7.651647973177E-01  7.743467748855E-01  7.836389361841E-01  7.930426034183E-01
  8.025591146593E-01  8.121898240353E-01  8.219361019237E-01  8.317993351468E-01
  8.417809271685E-01  8.518822982945E-01  8.621048858741E-01  8.724501445046E-01
  8.829195462386E-01  8.935145807935E-01  9.042367557630E-01  9.150875968322E-01
  9.260686479942E-01  9.371814717701E-01  9.484276494313E-01  9.598087812245E-01
  9.713264865992E-01  9.829824044384E-01  9.947781932916E-01  1.006715531611E+00
  1.018796117990E+00  1.031021671406E+00  1.043393931463E+00  1.055914658641E+00
  1.068585634544E+00  1.081408662159E+00  1.094385566105E+00  1.107518192898E+00
  1.120808411213E+00  1.134258112148E+00  1.147869209493E+00  1.161643640007E+00
  1.175583363687E+00  1.189690364052E+00  1.203966648420E+00  1.218414248201E+00
  1.233035219180E+00  1.247831641810E+00  1.262805621511E+00  1.277959288970E+00
  1.293294800437E+00  1.308814338043E+00  1.324520110099E+00  1.340414351420E+00
  1.356499323637E+00  1.372777315521E+00  1.389250643307E+00  1.405921651027E+00
  1.422792710839E+00  1.439866223369E+00  1.457144618050E+00  1.474630353466E+00
  1.492325917708E+00  1.510233828720E+00  1.528356634665E+00  1.546696914281E+00
  1.565257277252E+00  1.584040364579E+00  1.603048848954E+00  1.622285435142E+00
  1.641752860363E+00  1.661453894688E+00  1.681391341424E+00  1.701568037521E+00
  1.721986853971E+00  1.742650696219E+00  1.763562504574E+00  1.784725254629E+00
  1.806141957684E+00  1.827815661176E+00  1.849749449110E+00  1.871946442500E+00
  1.894409799810E+00  1.917142717408E+00  1.940148430016E+00  1.963430211177E+00
  1.986991373711E+00  2.010835270195E+00  2.034965293438E+00  2.059384876959E+00
  2.084097495482E+00  2.109106665428E+00  2.134415945413E+00  2.160028936758E+00
  2.185949283999E+00  2.212180675407E+00  2.238726843512E+00  2.265591565634E+00
  2.292778664422E+00  2.320292008395E+00  2.348135512496E+00  2.376313138646E+00
  2.404828896309E+00  2.433686843065E+00  2.462891085182E+00  2.492445778204E+00
  2.522355127543E+00  2.552623389073E+00  2.583254869742E+00  2.614253928179E+00
  2.645624975317E+00  2.677372475021E+00  2.709500944721E+00  2.742014956058E+00
  2.774919135530E+00  2.808218165157E+00  2.841916783139E+00  2.876019784536E+00
  2.910532021951E+00  2.945458406214E+00  2.980803907089E+00  3.016573553974E+00
  3.052772436622E+00  3.089405705861E+00  3.126478574331E+00  3.163996317223E+00
  3.201964273030E+00  3.240387844306E+00  3.279272498438E+00  3.318623768419E+00
  3.358447253640E+00  3.398748620684E+00  3.439533604132E+00  3.480808007382E+00
  3.522577703470E+00  3.564848635912E+00  3.607626819543E+00  3.650918341377E+00
  3.694729361474E+00  3.739066113812E+00  3.783934907177E+00  3.829342126064E+00
  3.875294231576E+00  3.921797762355E+00  3.968859335503E+00  4.016485647530E+00
  4.064683475300E+00  4.113459677003E+00  4.162821193128E+00  4.212775047445E+00
  4.263328348014E+00  4.314488288191E+00  4.366262147649E+00  4.418657293421E+00
  4.471681180942E+00  4.525341355113E+00  4.579645451374E+00  4.634601196791E+00
  4.690216411152E+00  4.746499008086E+00  4.803456996183E+00  4.861098480137E+00
  4.919431661899E+00  4.978464841842E+00  5.038206419944E+00  5.098664896983E+00
  5.159848875747E+00  5.221767062256E+00  5.284428267003E+00  5.347841406207E+00
  5.412015503082E+00  5.476959689119E+00  5.542683205388E+00  5.609195403853E+00
  5.676505748699E+00  5.744623817683E+00  5.813559303495E+00  5.883322015137E+00
  5.953921879319E+00  6.025368941871E+00  6.097673369173E+00  6.170845449603E+00
  6.244895594999E+00  6.319834342139E+00  6.395672354244E+00  6.472420422495E+00
  6.550089467565E+00  6.628690541176E+00  6.708234827670E+00  6.788733645602E+00
  6.870198449349E+00  6.952640830742E+00  7.036072520710E+00  7.120505390959E+00
  7.205951455650E+00  7.292422873118E+00  7.379931947596E+00  7.468491130967E+00
  7.558113024538E+00  7.648810380833E+00  7.740596105403E+00  7.833483258668E+00
  7.927485057772E+00  8.022614878465E+00  8.118886257007E+00  8.216312892091E+00
  8.314908646796E+00  8.414687550557E+00  8.515663801164E+00  8.617851766778E+00
  8.721265987979E+00  8.825921179835E+00  8.931832233993E+00  9.039014220801E+00
  9.147482391451E+00  9.257252180148E+00  9.368339206310E+00  9.480759276786E+00
  9.594528388107E+00  9.709662728764E+00  9.826178681509E+00  9.944092825688E+00
  1.006342193960E+01  1.018418300287E+01  1.030639319891E+01  1.043006991729E+01
  1.055523075630E+01  1.068189352538E+01  1.081007624768E+01  1.093979716265E+01
  1.107107472860E+01  1.120392762535E+01  1.133837475685E+01  1.147443525393E+01
  1.161212847698E+01  1.175147401870E+01  1.189249170693E+01  1.203520160741E+01
  1.217962402670E+01  1.232577951502E+01  1.247368886920E+01  1.262337313563E+01
  1.277485361326E+01  1.292815185662E+01  1.308328967890E+01  1.324028915504E+01
  1.339917262491E+01  1.355996269640E+01  1.372268224876E+01  1.388735443575E+01
  1.405400268898E+01  1.422265072124E+01  1.439332252990E+01  1.456604240026E+01
  1.474083490906E+01  1.491772492797E+01  1.509673762710E+01  1.527789847863E+01
  1.546123326037E+01  1.564676805950E+01  1.583452927621E+01  1.602454362753E+01
  1.621683815106E+01  1.641144020887E+01  1.660837749138E+01  1.680767802127E+01
  1.700937015753E+01  1.721348259942E+01  1.742004439061E+01  1.762908492330E+01
  1.784063394238E+01  1.805472154969E+01  1.827137820828E+01  1.849063474678E+01
  1.871252236374E+01  1.893707263211E+01  1.916431750369E+01  1.939428931374E+01
  1.962702078550E+01  1.986254503493E+01  2.010089557535E+01  2.034210632225E+01
  2.058621159812E+01  2.083324613730E+01  2.108324509094E+01  2.133624403203E+01
  2.159227896042E+01  2.185138630794E+01  2.211360294364E+01  2.237896617896E+01
  2.264751377311E+01  2.291928393839E+01  2.319431534565E+01  2.347264712980E+01
  2.375431889535E+01  2.403937072210E+01  2.432784317076E+01  2.461977728881E+01
  2.491521461628E+01  2.521419719167E+01  2.551676755797E+01  2.582296876867E+01
  2.613284439389E+01  2.644643852662E+01  2.676379578894E+01  2.708496133841E+01
  2.740998087447E+01  2.773890064496E+01  2.807176745270E+01  2.840862866213E+01
  2.874953220608E+01  2.909452659255E+01  2.944366091166E+01  2.979698484260E+01
  3.015454866071E+01  3.051640324464E+01  3.088260008358E+01  3.125319128458E+01
  3.162822958000E+01  3.200776833496E+01  3.239186155498E+01  3.278056389364E+01
  3.317393066036E+01  3.357201782828E+01  3.397488204222E+01  3.438258062673E+01
  3.479517159425E+01  3.521271365338E+01  3.563526621722E+01  3.606288941183E+01
  3.649564408477E+01  3.693359181379E+01  3.737679491555E+01  3.782531645454E+01
  3.827922025199E+01  3.873857089502E+01  3.920343374576E+01  3.967387495071E+01
  4.014996145012E+01  4.063176098752E+01  4.111934211937E+01  4.161277422480E+01
  4.211212751550E+01  4.261747304568E+01  4.312888272223E+01  4.364642931490E+01
  4.417018646668E+01
</grid-data>
</grid>
<valence-charge total-charge="16" is-unscreening-charge="yes"
 rescaled-to-z-pseudo="no">
<radfunc>
<data npts="457">
  1.145892990162E-01  1.154745262080E-01  1.181220746030E-01  1.225434541268E-01
  1.286997429412E-01  1.368106365184E-01  1.471742383968E-01  1.590777233879E-01
  1.725081043873E-01  1.882317175117E-01  2.060343882013E-01  2.254800074208E-01
  2.491133962504E-01  2.739501697601E-01  3.034506193456E-01  3.331294710986E-01
  3.675726186427E-01  4.004840758494E-01  4.377872802911E-01  4.800943734569E-01
  5.281083480311E-01  5.711676598623E-01  6.188634351469E-01  6.717209033595E-01
  7.303283675615E-01  7.953449911633E-01  8.675094499673E-01  9.268178621696E-01
  9.909959342505E-01  1.060463251498E+00  1.135676375007E+00  1.217131804090E+00
  1.305369050458E+00  1.400973788430E+00  1.504581031371E+00  1.616878267248E+00
  1.738608464851E+00  1.870572836512E+00  1.964657777815E+00  2.063943707182E+00
  2.168713842694E+00  2.279263975222E+00  2.395902437724E+00  2.518949952062E+00
  2.648739330798E+00  2.785615008650E+00  2.929932375448E+00  3.082056879294E+00
  3.242362865482E+00  3.411232113410E+00  3.589052030403E+00  3.776213458090E+00
  3.973108043797E+00  4.180125126537E+00  4.397648084651E+00  4.626050090208E+00
  4.865689214109E+00  5.116902825698E+00  5.380001231839E+00  5.655260503273E+00
  5.942914440865E+00  6.243145641704E+00  6.556075635188E+00  6.881754072886E+00
  7.220146973555E+00  7.571124046774E+00  7.934445145802E+00  8.120626106957E+00
  8.309745932966E+00  8.501737215289E+00  8.696522879543E+00  8.894015692598E+00
  9.094117767165E+00  9.296720066142E+00  9.501701909229E+00  9.708930484613E+00
  9.918260368755E+00  1.012953305763E+01  1.034257651304E+01  1.055720472789E+01
  1.077321731466E+01  1.099039912159E+01  1.120851988133E+01  1.142733389721E+01
  1.164657977245E+01  1.186598018791E+01  1.208524173439E+01  1.230405480544E+01
  1.252209355707E+01  1.273901594080E+01  1.295446381659E+01  1.316806315240E+01
  1.337942431689E+01  1.358814247210E+01  1.379379807234E+01  1.399595747585E+01
  1.419417367511E+01  1.438798715147E+01  1.457692685927E+01  1.476051134410E+01
  1.493824999899E+01  1.510964446162E+01  1.527419015475E+01  1.543137797082E+01
  1.558069610062E+01  1.572163200453E+01  1.585367452343E+01  1.597631612477E+01
  1.608905527754E+01  1.619139894827E+01  1.628286520804E+01  1.636298593889E+01
  1.643130962560E+01  1.648740421711E+01  1.653086003971E+01  1.656129274202E+01
  1.657834625006E+01  1.658169570861E+01  1.657105038364E+01  1.654615649882E+01
  1.650679997794E+01  1.645280906405E+01  1.638405678529E+01  1.630046323703E+01
  1.620199764996E+01  1.608868021403E+01  1.596058362910E+01  1.581783435425E+01
  1.566061352961E+01  1.548915754667E+01  1.530375824566E+01  1.510476272183E+01
  1.489257272590E+01  1.466764364787E+01  1.443048307779E+01  1.418164894137E+01
  1.392174721349E+01  1.365142921717E+01  1.337138852100E+01  1.308235745264E+01
  1.278510325133E+01  1.248042388676E+01  1.216914357644E+01  1.185210803763E+01
  1.153017951404E+01  1.120423162043E+01  1.087514405132E+01  1.054379720214E+01
  1.021106675273E+01  9.877818264135E+00  9.544901839780E+00  9.213146901909E+00
  8.883357132871E+00  8.556305629258E+00  8.232730314430E+00  7.913329652036E+00
  7.598758699617E+00  7.289625537467E+00  6.986488103646E+00  6.689851461564E+00
  6.400165521985E+00  6.117823236827E+00  5.843159146636E+00  5.576447879523E+00
  5.317903067023E+00  5.067678753910E+00  4.825873613446E+00  4.592535782222E+00
  4.367666569058E+00  4.151228785225E+00  3.943157978162E+00  3.743364830595E+00
  3.551737492549E+00  3.368143867993E+00  3.192433831815E+00  3.024441368009E+00
  2.863986621329E+00  2.710877856002E+00  2.564913316380E+00  2.425882985593E+00
  2.293570239422E+00  2.167753393626E+00  2.048207143957E+00  1.934703898969E+00
  1.827015006519E+00  1.724911875605E+00  1.628166995788E+00  1.536554857031E+00
  1.449852773256E+00  1.367841613326E+00  1.290306443501E+00  1.217037085688E+00
  1.147828595966E+00  1.082481668078E+00  1.020802966759E+00  9.626053955277E-01
  9.077083038621E-01  8.559376385248E-01  8.071260437203E-01  7.611129146891E-01
  7.177444091960E-01  6.768734212225E-01  6.383595209923E-01  6.020688652744E-01
  5.678740817025E-01  5.356541306386E-01  5.052941478912E-01  4.766852713798E-01
  4.497244546101E-01  4.243142696094E-01  4.003627017490E-01  3.777829386693E-01
  3.564931553153E-01  3.364162968903E-01  3.174798613420E-01  2.996156828160E-01
  2.827597173335E-01  2.668518317907E-01  2.518355972216E-01  2.376580871256E-01
  2.242696815262E-01  2.116238773090E-01  1.996771052721E-01  1.883885542238E-01
  1.777200023672E-01  1.676356561311E-01  1.581019965332E-01  1.490876330938E-01
  1.405631652626E-01  1.325010512725E-01  1.248754842885E-01  1.176622756858E-01
  1.108387452605E-01  1.043836181498E-01  9.827692822184E-02  9.249992767650E-02
  8.703500258990E-02  8.186559412708E-02  7.697612514269E-02  7.235193188866E-02
  6.797920054909E-02  6.384490832561E-02  5.993676880211E-02  5.624318132457E-02
  5.275318413977E-02  4.945641104623E-02  4.634305132077E-02  4.340381269503E-02
  4.062988716755E-02  3.801291944878E-02  3.554497784795E-02  3.321852742260E-02
  3.102640522326E-02  2.896179747660E-02  2.701821856168E-02  2.518949164393E-02
  2.346973084115E-02  2.185332480477E-02  2.033492160792E-02  1.890941483779E-02
  1.757193080453E-02  1.631781676299E-02  1.514263008003E-02  1.404212825964E-02
  1.301225975281E-02  1.204915548087E-02  1.114912100455E-02  1.030862927412E-02
  9.524313899378E-03  8.792962881542E-03  8.111512752425E-03  7.477043070007E-03
  6.886771223248E-03  6.338047502976E-03  5.828350399795E-03  5.355282094183E-03
  4.916564108214E-03  4.510033092558E-03  4.133636726563E-03  3.785429713179E-03
  3.463569854237E-03  3.166314195055E-03  2.892015230508E-03  2.639117167488E-03
  2.406152241128E-03  2.191737084258E-03  1.994569151233E-03  1.813423198685E-03
  1.647147826744E-03  1.494662085022E-03  1.354952148098E-03  1.227068065454E-03
  1.110120590802E-03  1.003278095558E-03  9.057635708775E-04  8.168517222271E-04
  7.358661598924E-04  6.621766882425E-04  5.951966958945E-04  5.343806482608E-04
  4.792216832879E-04  4.292493105420E-04  3.840272131735E-04  3.431511517156E-04
  3.062469681509E-04  2.729686882132E-04  2.429967194995E-04  2.160361426389E-04
  1.918150925033E-04  1.700832262559E-04  1.506102749008E-04  1.331846749253E-04
  1.176122766056E-04  1.037151255674E-04  9.133031425385E-05  8.030890003741E-05
  7.051488682260E-05  6.182426710865E-05  5.412412161164E-05  4.731177367976E-05
  4.129399586775E-05  3.598626616443E-05  3.131207148762E-05  2.720225617271E-05
  2.359441328357E-05  2.043231666669E-05  1.766539175297E-05  1.524822318552E-05
  1.314009741896E-05  1.130457849551E-05  9.709115258220E-06  8.324678312308E-06
  7.125425093589E-06  6.088391448880E-06  5.193208178552E-06  4.421841036417E-06
  3.758352727699E-06  3.188685492359E-06  2.700462908874E-06  2.282809602732E-06
  1.926187594629E-06  1.622248075399E-06  1.363697448011E-06  1.144176531325E-06
  9.581518753044E-07  8.008181929446E-07  6.680109697180E-07  5.561283667690E-07
  4.620615888946E-07  3.831329423299E-07  3.170408601804E-07  2.618112247505E-07
  2.157543657847E-07  1.774271615537E-07  1.455997156316E-07  1.192261259720E-07
  9.741890441986E-08  7.942664401211E-08  6.461456829360E-08  5.244763138919E-08
  4.247586974892E-08  3.432173634890E-08  2.766917574562E-08  2.225422381165E-08
  1.785693931139E-08  1.429449579794E-08  1.141528172735E-08  9.093874302008E-09
  7.226768478514E-09  5.728756920767E-09  4.529869556416E-09  3.572792915308E-09
  2.810699700063E-09  2.205428165838E-09  1.725958969349E-09  1.347144281878E-09
  1.048650237752E-09  8.140792940029E-10  6.302438877245E-10  4.865669676021E-10
  3.745886165267E-10  2.875611412826E-10  2.201176734797E-10  1.666618928339E-10
  1.241003095002E-10  9.424378919692E-11  7.135335876631E-11  5.385706068709E-11
  4.052489909179E-11  3.039741226795E-11  2.272849896440E-11  1.693979853519E-11
  1.258440617724E-11  9.318106042765E-12  6.876638860291E-12  5.057797310717E-12
  3.707370782161E-12  2.708149012539E-12  1.971348148889E-12  1.429948557329E-12
  1.033536103795E-12  7.443216484754E-13  5.340805704942E-13  3.818081267353E-13
  2.719297403762E-13  1.929398985987E-13  1.363708613717E-13  9.601420181429E-14
  6.733542840755E-14  4.703549207114E-14  3.272359940601E-14  2.267403938190E-14
  1.564617062575E-14  1.075170116045E-14  7.357234888762E-15  5.013008743754E-15
  3.400999170669E-15  2.297292848442E-15  1.544917304225E-15  1.034308635138E-15
  6.893310026344E-16  4.573141589175E-16  3.019859934475E-16  1.984815387587E-16
  1.298345142984E-16  8.452246945135E-17  5.475718771508E-17  3.529975455598E-17
  2.264321948295E-17  1.445155709175E-17  9.176452219268E-18  5.796850152752E-18
  3.642835199556E-18  2.277140958331E-18  1.415844873930E-18  8.755660062662E-19
  5.384945701100E-19  3.293551039171E-19  2.003130160173E-19  1.211396638970E-19
  7.283939784044E-20  4.354307786494E-20  2.587702461572E-20  1.528696476101E-20
  8.976536424320E-21  5.238964434415E-21  3.038780556692E-21  1.751613028638E-21
  1.003296268956E-21  5.710040038375E-22  3.228752591243E-22  0.000000000000E+00
  0.000000000000E+00  0.000000000000E+00  0.000000000000E+00  0.000000000000E+00
  0.000000000000E+00
</data>
</radfunc>
</valence-charge>
<pseudocore-charge matching-radius="0.687274718851"
 number-of-continuous-derivatives="4">
<annotation model-charge-form="Teter function with specified parameters" />
<radfunc>
<data npts="290">
  1.166824362261E+02  1.166695236798E+02  1.166309271138E+02  1.165665460427E+02
  1.164770576594E+02  1.163594312449E+02  1.162095858424E+02  1.160380933574E+02
  1.158453875602E+02  1.156208214106E+02  1.153679025563E+02  1.150932443940E+02
  1.147616482698E+02  1.144157325130E+02  1.140082037105E+02  1.136017858562E+02
  1.131345083012E+02  1.126922950109E+02  1.121959959617E+02  1.116392718000E+02
  1.110151141473E+02  1.104620682858E+02  1.098566257788E+02  1.091941493599E+02
  1.084696598786E+02  1.076778259887E+02  1.068129572534E+02  1.061127495147E+02
  1.053653771156E+02  1.045680431638E+02  1.037178434178E+02  1.028117719175E+02
  1.018467287167E+02  1.008195300416E+02  9.972692123293E+01  9.856559285973E+01
  9.733220042325E+01  9.602338809633E+01  9.510729609718E+01  9.415522071586E+01
  9.316619827249E+01  9.213928533512E+01  9.107356473424E+01  8.996815214300E+01
  8.882220324847E+01  8.763492153736E+01  8.640556671647E+01  8.513346378429E+01
  8.381801276525E+01  8.245869911224E+01  8.105510477584E+01  7.960691992999E+01
  7.811395533382E+01  7.657615529789E+01  7.499361120915E+01  7.336657555397E+01
  7.169547636106E+01  6.998093196664E+01  6.822376598279E+01  6.642502232620E+01
  6.458598013876E+01  6.270816840385E+01  6.079338003275E+01  5.884368516467E+01
  5.686144339223E+01  5.484931459161E+01  5.281026800493E+01  5.178166478308E+01
  5.074758919117E+01  4.970850207298E+01  4.866488443358E+01  4.761723740695E+01
  4.656608216635E+01  4.551195977354E+01  4.445543096325E+01  4.339707585921E+01
  4.233749361780E+01  4.127730199606E+01  4.021713684002E+01  3.915765149031E+01
  3.809951610131E+01  3.704341687106E+01  3.599005517858E+01  3.494014662621E+01
  3.389441998431E+01  3.285361603636E+01  3.181848632265E+01  3.078979178133E+01
  2.976830128595E+01  2.875479007925E+01  2.775003810343E+01  2.675482822782E+01
  2.576994437565E+01  2.479616955208E+01  2.383428377691E+01  2.288506192555E+01
  2.194927148356E+01  2.102767022022E+01  2.012100378812E+01  1.923000325648E+01
  1.835538258713E+01  1.749783606303E+01  1.665803568037E+01  1.583662851638E+01
  1.503423408609E+01  1.425144170232E+01  1.348880785431E+01  1.274685362127E+01
  1.202606213838E+01  1.132687613324E+01  1.064969555201E+01  9.994875294827E+00
  9.362723080815E+00  8.753497463439E+00  8.167406017064E+00  7.604603715793E+00
  7.065191525411E+00  6.549215228926E+00  6.056664505563E+00  5.587472282208E+00
  5.141514375081E+00  4.718609438026E+00  4.318519231999E+00  3.940949228293E+00
  3.585549555649E+00  3.251916298723E+00  2.939593152387E+00  2.648073433057E+00
  2.376802444706E+00  2.125180193417E+00  1.892564440339E+00  1.678274078732E+00
  1.481592816502E+00  1.301773141269E+00  1.138040540647E+00  9.895979461339E-01
  8.556303648585E-01  7.353096595099E-01  6.277994331756E-01  5.322599726000E-01
  4.478532006666E-01  3.737475867745E-01  3.091229623144E-01  2.531751877373E-01
  2.051206178159E-01  1.642003126944E-01  1.296839442526E-01  1.008733502031E-01
  7.710569222217E-02  5.775617925779E-02  4.224032294741E-02  3.001569874367E-02
  2.058319380381E-02  1.348773083685E-02  8.318465776125E-03  4.708466187052E-03
  2.333886537709E-03  9.126656392621E-04  2.027804749164E-04  9.903883697252E-08
  1.358824562258E-04  4.739933115027E-04  9.078725452156E-04  1.357351285111E-03
  1.765366376999E-03  2.094649041096E-03  2.324454912827E-03  2.447400703717E-03
  2.466467870882E-03  2.392227112720E-03  2.240329382450E-03  2.029299666130E-03
  1.778659307178E-03  1.507391529273E-03  1.232753412130E-03  9.694263370230E-04
  7.289862797480E-04  5.196657179967E-04  3.463707379149E-04  2.109105191750E-04
  1.123920244531E-04  4.773060119853E-05  1.222739735382E-05  1.669571641078E-07
  5.392935917716E-06  2.182627261317E-05  4.389799904116E-05  6.687766596013E-05
  8.708759294098E-05  1.020022291544E-04  1.102402859468E-04  1.114644525555E-04
  1.062090020313E-04  9.565912224689E-05  8.140719947643E-05  6.521053516949E-05
  4.877225363812E-05  3.356278118718E-05  2.069370203444E-05  1.084957673094E-05
  4.277047207327E-06  8.248450321036E-07  2.369785655377E-08  1.192007229555E-06
  3.551800786204E-06  6.339904242048E-06  8.901394981755E-06  1.075586443341E-05
  1.163135562322E-05  1.146548514406E-05  1.037760958091E-05  8.619409439396E-06
  6.513514625443E-06  4.390539848481E-06  2.534105901998E-06  1.141283811485E-06
  3.027972549761E-07  3.775345975992E-09  0.000000000000E+00  0.000000000000E+00
  0.000000000000E+00  0.000000000000E+00  0.000000000000E+00  0.000000000000E+00
  0.000000000000E+00  0.000000000000E+00  0.000000000000E+00  0.000000000000E+00
  0.000000000000E+00  0.000000000000E+00  0.000000000000E+00  0.000000000000E+00
  0.000000000000E+00  0.000000000000E+00  0.000000000000E+00  0.000000000000E+00
  0.000000000000E+00  0.000000000000E+00  0.000000000000E+00  0.000000000000E+00
  0.000000000000E+00  0.000000000000E+00  0.000000000000E+00  0.000000000000E+00
  0.000000000000E+00  0.000000000000E+00  0.000000000000E+00  0.000000000000E+00
  0.000000000000E+00  0.000000000000E+00  0.000000000000E+00  0.000000000000E+00
  0.000000000000E+00  0.000000000000E+00  0.000000000000E+00  0.000000000000E+00
  0.000000000000E+00  0.000000000000E+00  0.000000000000E+00  0.000000000000E+00
  0.000000000000E+00  0.000000000000E+00  0.000000000000E+00  0.000000000000E+00
  0.000000000000E+00  0.000000000000E+00  0.000000000000E+00  0.000000000000E+00
  0.000000000000E+00  0.000000000000E+00  0.000000000000E+00  0.000000000000E+00
  0.000000000000E+00  0.000000000000E+00  0.000000000000E+00  0.000000000000E+00
  0.000000000000E+00  0.000000000000E+00  0.000000000000E+00  0.000000000000E+00
  0.000000000000E+00  0.000000000000E+00  0.000000000000E+00  0.000000000000E+00
  0.000000000000E+00  0.000000000000E+00  0.000000000000E+00  0.000000000000E+00
  0.000000000000E+00  0.000000000000E+00
</data>
</radfunc>
</pseudocore-charge>
<semilocal-potentials set="lj">
<slps n="4" l="s" j="0.5" rc="1.35649932364" eref="-2.80304622307">
<radfunc>
<data npts="290">
  6.165523208062E+01  6.159440574846E+01  6.141305162732E+01  6.111207377030E+01
  6.069686875984E+01  6.015660617365E+01  5.947724671636E+01  5.871170601248E+01
  5.786633053123E+01  5.690048079874E+01  5.583677771349E+01  5.470955407884E+01
  5.338586797400E+01  5.204656936793E+01  5.052057672449E+01  4.905183041732E+01
  4.742512880136E+01  4.594342565797E+01  4.434356917613E+01  4.262360999372E+01
  4.078313128049E+01  3.922482101003E+01  3.759181081853E+01  3.588657513484E+01
  3.411250189767E+01  3.227391452080E+01  3.037607135114E+01  2.891747979039E+01
  2.743193052181E+01  2.592259959191E+01  2.439289466037E+01  2.284642813553E+01
  2.128698635405E+01  1.971849535243E+01  1.814498389981E+01  1.657054456313E+01
  1.499929365119E+01  1.343533093073E+01  1.239873843424E+01  1.136836059547E+01
  1.034535035422E+01  9.330832729224E+00  8.325900609505E+00  7.331610881871E+00
  6.348980926653E+00  5.378985508808E+00  4.422554085898E+00  3.480568548906E+00
  2.553861406169E+00  1.643214415181E+00  7.493576616891E-01 -1.270309196367E-01
 -9.853255933296E-01 -1.824952454809E+00 -2.645388664211E+00 -3.446161304361E+00
 -4.226845887804E+00 -4.987064540181E+00 -5.726483889246E+00 -6.444812690275E+00
 -7.141799219760E+00 -7.817228470032E+00 -8.470919177955E+00 -9.102720721058E+00
 -9.712509914625E+00 -1.030018774328E+01 -1.086567606066E+01 -1.114007962591E+01
 -1.140891429086E+01 -1.167217469353E+01 -1.192985616582E+01 -1.218195463597E+01
 -1.242846653295E+01 -1.266938869300E+01 -1.290471826879E+01 -1.313445264133E+01
 -1.335858933503E+01 -1.357712593621E+01 -1.379006001538E+01 -1.399738905367E+01
 -1.419911037365E+01 -1.439522107506E+01 -1.458571797569E+01 -1.477059755785E+01
 -1.494985592081E+01 -1.512348873960E+01 -1.529149123056E+01 -1.545385812412E+01
 -1.561058364509E+01 -1.576166150094E+01 -1.590708487836E+01 -1.604684644864E+01
 -1.618093838184E+01 -1.630935237037E+01 -1.643207966195E+01 -1.654911110210E+01
 -1.666043718621E+01 -1.676604812108E+01 -1.686593389562E+01 -1.696008436031E+01
 -1.704848931493E+01 -1.713113860360E+01 -1.720802221624E+01 -1.727913039533E+01
 -1.734445374634E+01 -1.740398335052E+01 -1.745771087810E+01 -1.750562870022E+01
 -1.754772999757E+01 -1.758400886398E+01 -1.761446040323E+01 -1.763908081735E+01
 -1.765786748550E+01 -1.767081903232E+01 -1.767793538567E+01 -1.767921782387E+01
 -1.767466901354E+01 -1.766429303963E+01 -1.764809542990E+01 -1.762608317721E+01
 -1.759826476300E+01 -1.756465018677E+01 -1.752525100627E+01 -1.748008039408E+01
 -1.742915321665E+01 -1.737248614220E+01 -1.731009778476E+01 -1.724200889148E+01
 -1.716824258172E+01 -1.708882464636E+01 -1.700378391682E+01 -1.691315271418E+01
 -1.681696738955E+01 -1.671526896772E+01 -1.660810390750E+01 -1.649552499273E+01
 -1.637759236924E+01 -1.625437474336E+01 -1.612595075844E+01 -1.599241056557E+01
 -1.585385760432E+01 -1.571041060800E+01 -1.556220584567E+01 -1.540939960985E+01
 -1.525217095387E+01 -1.509072467652E+01 -1.492529454300E+01 -1.475614672063E+01
 -1.458358339449E+01 -1.440794651274E+01 -1.422962159238E+01 -1.404904149549E+01
 -1.386669006190E+01 -1.368310545841E+01 -1.349888307707E+01 -1.331467778703E+01