<?xml version="1.0" encoding="UTF-8" ?>
<psml version="1.1" energy_unit="hartree" length_unit="bohr"
 uuid="37278610-53a0-11e8-58d3-80dbedf78f8e"
 xmlns="http://esl.cecam.org/PSML/ns/1.1">
<provenance creator="ONCVPSP-3.3.0+psml-3.3.0-73 (fully-relativistic)"
 date="2018-05-09">
<annotation action="semilocal-pseudopotential-generation"
 action-cont="projectors-generation" />
<input-file name="oncvpsp-input">
<![CDATA[# atsym z nc nv iexc psfile
N 7 1 2 -116133 upf
# n l f
1 0 2.0
2 0 2.0
2 1 3.0
# lmax
1
# l rc ep ncon nbas qcut
0 1.2 0.0 4 8 8.8
1 1.35 0.0 4 8 9.0
# lloc lpopt rc5 dvloc0
4 5 1.2 0.0
# l nproj debl
0 2 1.0
1 2 1.0
# icmod fcfact
3 4 1.5
# epsh1 epsh2 depsh
-12.0 12.0 0.02
# rlmax drl
6.0 0.01
 0
]]>
</input-file>
</provenance>
<pseudo-atom-spec atomic-label="N" atomic-number="7" z-pseudo="5"
 flavor="Hamann&apos;s oncvpsp" relativity="dirac" spin-dft="no"
 core-corrections="yes">
<annotation pseudo-energy="-9.63467013552" />
<exchange-correlation>
<annotation oncvpsp-xc-code="-116133" oncvpsp-xc-type="libxc-interface" />
<libxc-info number-of-functionals="2">
<functional name="Perdew, Burke &amp; Ernzerhof SOL (GGA)" type="exchange"
 id="116" />
<functional name="Perdew, Burke &amp; Ernzerhof SOL (GGA)" type="correlation"
 id="133" />
</libxc-info>
</exchange-correlation>
<valence-configuration total-valence-charge="5">
<shell n="2" l="s" occupation="2" />
<shell n="2" l="p" occupation="3" />
</valence-configuration>
</pseudo-atom-spec>
<grid npts="457">
<annotation type="sampled from oncvpsp log grid"
 recipe="r(i:1..N) = r1*exp(a*(i-1)) + r=0; resampled"
 recipe-cont="r1: scale; a: step" scale="0.714285714286E-04"
 step="0.119285708653E-01" delta="0.500000000000E-02" rmax="44.2267415588" />
<grid-data>
  0.000000000000E+00  5.050273848726E-03  1.008752568157E-02  1.513289708366E-02
  2.014904090835E-02  2.527458982023E-02  3.058949562954E-02  3.572061921814E-02
  4.072908151017E-02  4.588912125880E-02  5.108981780357E-02  5.620545319168E-02
  6.183331834590E-02  6.721808592128E-02  7.307178711718E-02  7.849333904832E-02
  8.431714233393E-02  8.949905332213E-02  9.499943100341E-02  1.008378475076E-01
  1.070350778164E-01  1.122659819048E-01  1.177525251550E-01  1.235072008914E-01
  1.295431129985E-01  1.358740057603E-01  1.425142951564E-01  1.477066222222E-01
  1.530881251201E-01  1.586656962307E-01  1.644464790501E-01  1.704378773384E-01
  1.766475646022E-01  1.830834939228E-01  1.897539081417E-01  1.966673504179E-01
  2.038326751695E-01  2.112590594141E-01  2.163596981446E-01  2.215834866966E-01
  2.269333983994E-01  2.324124783703E-01  2.380238452481E-01  2.437706929678E-01
  2.496562925788E-01  2.556839941068E-01  2.618572284605E-01  2.681795093845E-01
  2.746544354591E-01  2.812856921488E-01  2.880770539000E-01  2.950323862894E-01
  3.021556482240E-01  3.094508941947E-01  3.169222765841E-01  3.245740480300E-01
  3.324105638456E-01  3.404362844991E-01  3.486557781520E-01  3.570737232597E-01
  3.656949112341E-01  3.745242491710E-01  3.835667626430E-01  3.928275985602E-01
  4.023120280998E-01  4.120254497063E-01  4.219733921640E-01  4.270370728700E-01
  4.321615177444E-01  4.373474559573E-01  4.425956254288E-01  4.479067729340E-01
  4.532816542092E-01  4.587210340597E-01  4.642256864684E-01  4.697963947060E-01
  4.754339514425E-01  4.811391588598E-01  4.869128287661E-01  4.927557827113E-01
  4.986688521039E-01  5.046528783291E-01  5.107087128690E-01  5.168372174235E-01
  5.230392640326E-01  5.293157352009E-01  5.356675240234E-01  5.420955343116E-01
  5.486006807234E-01  5.551838888921E-01  5.618460955588E-01  5.685882487055E-01
  5.754113076899E-01  5.823162433822E-01  5.893040383028E-01  5.963756867624E-01
  6.035321950036E-01  6.107745813436E-01  6.181038763198E-01  6.255211228356E-01
  6.330273763096E-01  6.406237048253E-01  6.483111892832E-01  6.560909235546E-01
  6.639640146373E-01  6.719315828129E-01  6.799947618067E-01  6.881546989484E-01
  6.964125553358E-01  7.047695059998E-01  7.132267400718E-01  7.217854609526E-01
  7.304468864841E-01  7.392122491219E-01  7.480827961113E-01  7.570597896647E-01
  7.661445071407E-01  7.753382412263E-01  7.846423001211E-01  7.940580077225E-01
  8.035867038152E-01  8.132297442610E-01  8.229885011921E-01  8.328643632064E-01
  8.428587355649E-01  8.529730403917E-01  8.632087168764E-01  8.735672214789E-01
  8.840500281366E-01  8.946586284743E-01  9.053945320160E-01  9.162592664001E-01
  9.272543775969E-01  9.383814301281E-01  9.496420072896E-01  9.610377113771E-01
  9.725701639136E-01  9.842410058806E-01  9.960518979512E-01  1.008004520727E+00
  1.020100574975E+00  1.032341781875E+00  1.044729883258E+00  1.057266641857E+00
  1.069953841559E+00  1.082793287658E+00  1.095786807109E+00  1.108936248795E+00
  1.122243483780E+00  1.135710405586E+00  1.149338930453E+00  1.163130997618E+00
  1.177088569590E+00  1.191213632425E+00  1.205508196014E+00  1.219974294366E+00
  1.234613985898E+00  1.249429353729E+00  1.264422505974E+00  1.279595576046E+00
  1.294950722958E+00  1.310490131634E+00  1.326216013213E+00  1.342130605372E+00
  1.358236172636E+00  1.374535006708E+00  1.391029426788E+00  1.407721779910E+00
  1.424614441269E+00  1.441709814564E+00  1.459010332339E+00  1.476518456327E+00
  1.494236677803E+00  1.512167517936E+00  1.530313528152E+00  1.548677290489E+00
  1.567261417975E+00  1.586068554991E+00  1.605101377651E+00  1.624362594183E+00
  1.643854945313E+00  1.663581204657E+00  1.683544179112E+00  1.703746709262E+00
  1.724191669773E+00  1.744881969810E+00  1.765820553448E+00  1.787010400089E+00
  1.808454524890E+00  1.830155979189E+00  1.852117850939E+00  1.874343265151E+00
  1.896835384332E+00  1.919597408944E+00  1.942632577852E+00  1.965944168786E+00
  1.989535498811E+00  2.013409924797E+00  2.037570843895E+00  2.062021694021E+00
  2.086765954350E+00  2.111807145802E+00  2.137148831552E+00  2.162794617530E+00
  2.188748152940E+00  2.215013130776E+00  2.241593288345E+00  2.268492407805E+00
  2.295714316699E+00  2.323262888499E+00  2.351142043161E+00  2.379355747679E+00
  2.407908016651E+00  2.436802912851E+00  2.466044547805E+00  2.495637082379E+00
  2.525584727368E+00  2.555891744096E+00  2.586562445025E+00  2.617601194365E+00
  2.649012408698E+00  2.680800557602E+00  2.712970164293E+00  2.745525806265E+00
  2.778472115940E+00  2.811813781331E+00  2.845555546707E+00  2.879702213268E+00
  2.914258639827E+00  2.949229743505E+00  2.984620500427E+00  3.020435946432E+00
  3.056681177789E+00  3.093361351923E+00  3.130481688146E+00  3.168047468404E+00
  3.206064038025E+00  3.244536806481E+00  3.283471248159E+00  3.322872903137E+00
  3.362747377974E+00  3.403100346510E+00  3.443937550668E+00  3.485264801276E+00
  3.527087978891E+00  3.569413034638E+00  3.612245991054E+00  3.655592942946E+00
  3.699460058262E+00  3.743853578961E+00  3.788779821908E+00  3.834245179771E+00
  3.880256121928E+00  3.926819195392E+00  3.973941025736E+00  4.021628318045E+00
  4.069887857862E+00  4.118726512156E+00  4.168151230302E+00  4.218169045066E+00
  4.268787073606E+00  4.320012518490E+00  4.371852668711E+00  4.424314900736E+00
  4.477406679545E+00  4.531135559699E+00  4.585509186416E+00  4.640535296653E+00
  4.696221720213E+00  4.752576380855E+00  4.809607297425E+00  4.867322584994E+00
  4.925730456014E+00  4.984839221487E+00  5.044657292144E+00  5.105193179650E+00
  5.166455497806E+00  5.228452963780E+00  5.291194399345E+00  5.354688732137E+00
  5.418944996923E+00  5.483972336886E+00  5.549780004928E+00  5.616377364988E+00
  5.683773893367E+00  5.751979180088E+00  5.821002930249E+00  5.890854965412E+00
  5.961545224997E+00  6.033083767697E+00  6.105480772909E+00  6.178746542184E+00
  6.252891500690E+00  6.327926198699E+00  6.403861313083E+00  6.480707648840E+00
  6.558476140626E+00  6.637177854314E+00  6.716823988565E+00  6.797425876428E+00
  6.878994986945E+00  6.961542926789E+00  7.045081441910E+00  7.129622419213E+00
  7.215177888244E+00  7.301760022902E+00  7.389381143177E+00  7.478053716895E+00
  7.567790361498E+00  7.658603845836E+00  7.750507091986E+00  7.843513177090E+00
  7.937635335215E+00  8.032886959238E+00  8.129281602749E+00  8.226832981982E+00
  8.325554977765E+00  8.425461637498E+00  8.526567177148E+00  8.628885983274E+00
  8.732432615074E+00  8.837221806454E+00  8.943268468132E+00  9.050587689749E+00
  9.159194742026E+00  9.269105078931E+00  9.380334339878E+00  9.492898351956E+00
  9.606813132180E+00  9.722094889766E+00  9.838760028443E+00  9.956825148785E+00
  1.007630705057E+01  1.019722273518E+01  1.031958940800E+01  1.044342448089E+01
  1.056874557467E+01  1.069557052156E+01  1.082391736782E+01  1.095380437623E+01
  1.108525002875E+01  1.121827302909E+01  1.135289230544E+01  1.148912701311E+01
  1.162699653727E+01  1.176652049571E+01  1.190771874166E+01  1.205061136656E+01
  1.219521870296E+01  1.234156132740E+01  1.248966006332E+01  1.263953598408E+01
  1.279121041589E+01  1.294470494088E+01  1.310004140017E+01  1.325724189698E+01
  1.341632879974E+01  1.357732474534E+01  1.374025264228E+01  1.390513567399E+01
  1.407199730208E+01  1.424086126970E+01  1.441175160494E+01  1.458469262420E+01
  1.475970893569E+01  1.493682544292E+01  1.511606734823E+01  1.529746015641E+01
  1.548102967829E+01  1.566680203443E+01  1.585480365884E+01  1.604506130275E+01
  1.623760203838E+01  1.643245326284E+01  1.662964270199E+01  1.682919841442E+01
  1.703114879539E+01  1.723552258093E+01  1.744234885191E+01  1.765165703813E+01
  1.786347692259E+01  1.807783864566E+01  1.829477270940E+01  1.851430998192E+01
  1.873648170170E+01  1.896131948212E+01  1.918885531591E+01  1.941912157970E+01
  1.965215103865E+01  1.988797685112E+01  2.012663257333E+01  2.036815216421E+01
  2.061256999018E+01  2.085992083006E+01  2.111023988002E+01  2.136356275858E+01
  2.161992551169E+01  2.187936461783E+01  2.214191699324E+01  2.240761999716E+01
  2.267651143713E+01  2.294862957437E+01  2.322401312927E+01  2.350270128682E+01
  2.378473370226E+01  2.407015050669E+01  2.435899231277E+01  2.465130022052E+01
  2.494711582316E+01  2.524648121304E+01  2.554943898760E+01  2.585603225545E+01
  2.616630464252E+01  2.648030029823E+01  2.679806390180E+01  2.711964066863E+01
  2.744507635665E+01  2.777441727293E+01  2.810771028020E+01  2.844500280357E+01
  2.878634283721E+01  2.913177895126E+01  2.948136029867E+01  2.983513662226E+01
  3.019315826172E+01  3.055547616086E+01  3.092214187479E+01  3.129320757729E+01
  3.166872606822E+01  3.204875078104E+01  3.243333579041E+01  3.282253581989E+01
  3.321640624973E+01  3.361500312473E+01  3.401838316223E+01  3.442660376017E+01
  3.483972300530E+01  3.525779968136E+01  3.568089327754E+01  3.610906399687E+01
  3.654237276483E+01  3.698088123801E+01  3.742465181286E+01  3.787374763462E+01
  3.832823260623E+01  3.878817139751E+01  3.925362945428E+01  3.972467300773E+01
  4.020136908382E+01  4.068378551283E+01  4.117199093898E+01  4.166605483025E+01
  4.216604748821E+01  4.267204005807E+01  4.318410453877E+01  4.370231379323E+01
  4.422674155875E+01
</grid-data>
</grid>
<valence-charge total-charge="5" is-unscreening-charge="yes"
 rescaled-to-z-pseudo="no">
<radfunc>
<data npts="457">
  1.016713890553E+00  1.017881823492E+00  1.021372360158E+00  1.027193100517E+00
  1.035280372948E+00  1.045904455822E+00  1.059428547997E+00  1.074892562109E+00
  1.092251836129E+00  1.112457590239E+00  1.135184009916E+00  1.159827261946E+00
  1.189528284140E+00  1.220452404840E+00  1.256806368200E+00  1.292976640292E+00
  1.334458474180E+00  1.373611583010E+00  1.417432776912E+00  1.466436738095E+00
  1.521183541184E+00  1.569521673734E+00  1.622253921368E+00  1.679730159889E+00
  1.742317540904E+00  1.810398869380E+00  1.884370234439E+00  1.943958127073E+00
  2.007261125067E+00  2.074453394233E+00  2.145708058515E+00  2.221195347956E+00
  2.301080418787E+00  2.385520809554E+00  2.474663496218E+00  2.568641508966E+00
  2.667570074347E+00  2.771542248675E+00  2.843692894996E+00  2.918126894863E+00
  2.994848803969E+00  3.073855142831E+00  3.155133511713E+00  3.238661655699E+00
  3.324406481738E+00  3.412323030361E+00  3.502353405917E+00  3.594425670390E+00
  3.688452707251E+00  3.784331063408E+00  3.881939779043E+00  3.981139217021E+00
  4.081769905694E+00  4.183651411106E+00  4.286581257010E+00  4.390333913613E+00
  4.494659878489E+00  4.599284875717E+00  4.703909201858E+00  4.808207249803E+00
  4.911827243791E+00  5.014391220812E+00  5.115495295094E+00  5.214710243323E+00
  5.311582448407E+00  5.405635238915E+00  5.496370659527E+00  5.540333465036E+00
  5.583271704871E+00  5.625118223826E+00  5.665805044651E+00  5.705263481557E+00
  5.743424262050E+00  5.780217657114E+00  5.815573619735E+00  5.849421931676E+00
  5.881692358400E+00  5.912314811961E+00  5.941219521629E+00  5.968337211967E+00
  5.993599288007E+00  6.016938027106E+00  6.038286777003E+00  6.057580159540E+00
  6.074754279416E+00  6.089746937306E+00  6.102497846599E+00  6.112948852928E+00
  6.121044155638E+00  6.126730530241E+00  6.129957550877E+00  6.130677811738E+00
  6.128847146373E+00  6.124424843742E+00  6.117373859872E+00  6.107661023938E+00
  6.095257237568E+00  6.080137666189E+00  6.062281921209E+00  6.041674231880E+00
  6.018303605683E+00  5.992163976120E+00  5.963254336880E+00  5.931578861342E+00
  5.897147006512E+00  5.859973600518E+00  5.820078912890E+00  5.777488706953E+00
  5.732234273731E+00  5.684352446864E+00  5.633885598150E+00  5.580881613391E+00
  5.525393848328E+00  5.467481064532E+00  5.407207345174E+00  5.344641990666E+00
  5.279859394216E+00  5.212938897347E+00  5.143964625480E+00  5.073025303630E+00
  5.000214052288E+00  4.925628163502E+00  4.849368857123E+00  4.771541017140E+00
  4.692252907957E+00  4.611615870412E+00  4.529743997290E+00  4.446753788061E+00
  4.362763782580E+00  4.277894173503E+00  4.192266397325E+00  4.106002704036E+00
  4.019225705699E+00  3.932057904511E+00  3.844621201383E+00  3.757036386565E+00
  3.669422614461E+00  3.581896865558E+00  3.494573399157E+00  3.407563201591E+00
  3.320973435529E+00  3.234906897073E+00  3.149461488342E+00  3.064729714290E+00
  2.980798213432E+00  2.897747332951E+00  2.815650759262E+00  2.734575215465E+00
  2.654580237113E+00  2.575718037332E+00  2.498033471493E+00  2.421564110251E+00
  2.346340427848E+00  2.272386110092E+00  2.199718483333E+00  2.128349248722E+00
  2.058286098519E+00  1.989534824826E+00  1.922100269639E+00  1.855986726469E+00
  1.791198690770E+00  1.727741397250E+00  1.665621289660E+00  1.604846374898E+00
  1.545426442941E+00  1.487372822982E+00  1.430696730883E+00  1.375406953587E+00
  1.321509538207E+00  1.269008267939E+00  1.217904557484E+00  1.168197567812E+00
  1.119884290908E+00  1.072959639975E+00  1.027416541771E+00  9.832460306220E-01
  9.404373437463E-01  8.989780175083E-01  8.588539842597E-01  8.200496694180E-01
  7.825480884541E-01  7.463309434802E-01  7.113787191230E-01  6.776707774305E-01
  6.451854515191E-01  6.139001377260E-01  5.837913860345E-01  5.548349885598E-01
  5.270060658961E-01  5.002791511570E-01  4.746282715407E-01  4.500270272803E-01
  4.264486678570E-01  4.038661653650E-01  3.822522849389E-01  3.615796521658E-01
  3.418208174260E-01  3.229483171128E-01  3.049347317059E-01  2.877527406781E-01
  2.713751742341E-01  2.557750618898E-01  2.409256779129E-01  2.268005836565E-01
  2.133736668283E-01  2.006191777456E-01  1.885117626374E-01  1.770264940598E-01
  1.661388985009E-01  1.558249812552E-01  1.460612486533E-01  1.368247277383E-01
  1.280929834820E-01  1.198441336393E-01  1.120568613393E-01  1.047104255133E-01
  9.778466926232E-02  9.126002626474E-02  8.511752532542E-02  7.933879316664E-02
  7.390605555951E-02  6.880213689318E-02  6.401045827687E-02  5.951503426788E-02
  5.530046831625E-02  5.135194701434E-02  4.765523323742E-02  4.419665825859E-02
  4.096311291955E-02  3.794203793597E-02  3.512141341440E-02  3.248974765555E-02
  3.003606531664E-02  2.774989500379E-02  2.562125636339E-02  2.364064673969E-02
  2.179902746380E-02  2.008780983753E-02  1.849884087345E-02  1.702438885037E-02
  1.565712874148E-02  1.439012756972E-02  1.321682974289E-02  1.213104241798E-02
  1.112692094180E-02  1.019895441189E-02  9.341951398935E-03  8.551025868472E-03
  7.821583336991E-03  7.149307293957E-03  6.530145918251E-03  5.960299114271E-03
  5.436205889747E-03  4.954532094197E-03  4.512158533909E-03  4.106169476374E-03
  3.733841554253E-03  3.392633076299E-03  3.080173750054E-03  2.794254818800E-03
  2.532819612985E-03  2.293954514331E-03  2.075880328946E-03  1.876944064074E-03
  1.695611101625E-03  1.530457760298E-03  1.380164236937E-03  1.243507916808E-03
  1.119357041631E-03  1.006664723569E-03  9.044632928261E-04  8.118589661329E-04
  7.280268231688E-04  6.522060777893E-04  5.836956309300E-04  5.218498921043E-04
  4.660748565666E-04  4.158244254288E-04  3.705969563020E-04  3.299320323691E-04
  2.934074381684E-04  2.606363307771E-04  2.312645955164E-04  2.049683757449E-04
  1.814517667679E-04  1.604446643467E-04  1.417007587517E-04  1.249956657527E-04
  1.101251863817E-04  9.690368772890E-05  8.516259744555E-05  7.474900502305E-05
  6.552436329307E-05  5.736328395400E-05  5.015242126885E-05  4.378943840236E-05
  3.818205117008E-05  3.324714425984E-05  2.890995525833E-05  2.510332207211E-05
  2.176698957492E-05  1.884697154286E-05  1.629496415594E-05  1.406780755043E-05
  1.212699210199E-05  1.043820630496E-05  8.970923290258E-06  7.698023192429E-06
  6.595448737289E-06  5.641891574859E-06  4.818507028906E-06  4.108655074517E-06
  3.497665489080E-06  2.972625250171E-06  2.522186376268E-06  2.136392523216E-06
  1.806522761075E-06  1.524951062516E-06  1.285020135487E-06  1.080928329453E-06
  9.076284363813E-07  7.607372947081E-07  6.364551870727E-07  5.314941006083E-07
  4.430139922025E-07  3.685662704789E-07  3.060437714183E-07  2.536365656546E-07
  2.097929926710E-07  1.731853705225E-07  1.426798794527E-07  1.173101640028E-07
  9.625424107189E-08  7.881434103335E-08  6.439934559009E-08  5.250951972126E-08
  4.272326598364E-08  3.468565774188E-08  2.809853376414E-08  2.271196018494E-08
  1.831688725588E-08  1.473884772113E-08  1.183256121045E-08  9.477324875354E-09
  7.573084734192E-09  6.037094967555E-09  4.801083834905E-09  3.808855082701E-09
  3.014262790564E-09  2.379505657480E-09  1.873693859850E-09  1.471647906622E-09
  1.152894456444E-09  9.008289246562E-10  7.020189646874E-10  5.456266241839E-10
  4.229302105204E-10  3.269297076181E-10  2.520220156002E-10  1.937343814955E-10
  1.485061933066E-10  1.135108575578E-10  8.651080442396E-11  6.573979369399E-11
  4.980765492490E-11  3.762340902049E-11  2.833340629178E-11  2.127169554792E-11
  1.592032547214E-11  1.187768702830E-11  8.833345733460E-12  6.548095556400E-12
  4.838200807784E-12  3.562976171257E-12  2.615089678501E-12  1.912866624736E-12
  1.394401185205E-12  1.012921506355E-12  7.332065291440E-13  0.000000000000E+00
  0.000000000000E+00  0.000000000000E+00  0.000000000000E+00  0.000000000000E+00
  0.000000000000E+00  0.000000000000E+00  0.000000000000E+00  0.000000000000E+00
  0.000000000000E+00  0.000000000000E+00  0.000000000000E+00  0.000000000000E+00
  0.000000000000E+00  0.000000000000E+00  0.000000000000E+00  0.000000000000E+00
  0.000000000000E+00  0.000000000000E+00  0.000000000000E+00  0.000000000000E+00
  0.000000000000E+00  0.000000000000E+00  0.000000000000E+00  0.000000000000E+00
  0.000000000000E+00  0.000000000000E+00  0.000000000000E+00  0.000000000000E+00
  0.000000000000E+00  0.000000000000E+00  0.000000000000E+00  0.000000000000E+00
  0.000000000000E+00  0.000000000000E+00  0.000000000000E+00  0.000000000000E+00
  0.000000000000E+00  0.000000000000E+00  0.000000000000E+00  0.000000000000E+00
  0.000000000000E+00  0.000000000000E+00  0.000000000000E+00  0.000000000000E+00
  0.000000000000E+00  0.000000000000E+00  0.000000000000E+00  0.000000000000E+00
  0.000000000000E+00  0.000000000000E+00  0.000000000000E+00  0.000000000000E+00
  0.000000000000E+00  0.000000000000E+00  0.000000000000E+00  0.000000000000E+00
  0.000000000000E+00  0.000000000000E+00  0.000000000000E+00  0.000000000000E+00
  0.000000000000E+00  0.000000000000E+00  0.000000000000E+00  0.000000000000E+00
  0.000000000000E+00  0.000000000000E+00  0.000000000000E+00  0.000000000000E+00
  0.000000000000E+00  0.000000000000E+00  0.000000000000E+00  0.000000000000E+00
  0.000000000000E+00  0.000000000000E+00  0.000000000000E+00  0.000000000000E+00
  0.000000000000E+00
</data>
</radfunc>
</valence-charge>
<pseudocore-charge matching-radius="0.453281654209"
 number-of-continuous-derivatives="4">
<annotation model-charge-form="Teter function with specified parameters" />
<radfunc>
<data npts="290">
  2.414069723261E+01  2.413648957881E+01  2.412391408226E+01  2.410294248957E+01
  2.407380276134E+01  2.403551890178E+01  2.398677891668E+01  2.393103935055E+01
  2.386845783765E+01  2.379560036958E+01  2.371363551780E+01  2.362473512764E+01
  2.351755757695E+01  2.340592951645E+01  2.327465213993E+01  2.314398455276E+01
  2.299406147726E+01  2.285248767156E+01  2.269395539983E+01  2.251657200583E+01
  2.231827077747E+01  2.214306546466E+01  2.195180431873E+01  2.174317876624E+01
  2.151580769791E+01  2.126824110793E+01  2.099896595510E+01  2.078182212572E+01
  2.055090867338E+01  2.030553787920E+01  2.004501637583E+01  1.976865037143E+01
  1.947575184027E+01  1.916564578091E+01  1.883767864402E+01  1.849122802951E+01
  1.812571374710E+01  1.774061032369E+01  1.747276301571E+01  1.719588950119E+01
  1.690989343348E+01  1.661469967795E+01  1.631025680726E+01  1.599653972504E+01
  1.567355241013E+01  1.534133077028E+01  1.499994559089E+01  1.464950556074E+01
  1.429016035201E+01  1.392210372769E+01  1.354557664392E+01  1.316087030960E+01
  1.276832915946E+01  1.236835369070E+01  1.196140310669E+01  1.154799770457E+01
  1.112872093702E+01  1.070422107182E+01  1.027521236672E+01  9.842475671535E+00
  9.406858364618E+00  8.969273527641E+00  8.530698260462E+00  8.092171038281E+00
  7.654788015884E+00  7.219698189505E+00  6.788097336042E+00  6.573989964433E+00
  6.361220662626E+00  6.149948566947E+00  5.940334117312E+00  5.732538710866E+00
  5.526724334426E+00  5.323053176037E+00  5.121687216156E+00  4.922787799103E+00
  4.726515185627E+00  4.533028087580E+00  4.342483185937E+00  4.155034633546E+00
  3.970833544261E+00  3.790027470280E+00  3.612759869755E+00  3.439169566982E+00
  3.269390207661E+00  3.103549712003E+00  2.941769728623E+00  2.784165092437E+00
  2.630843289932E+00  2.481903935429E+00  2.337438262109E+00  2.197528631741E+00
  2.062248067205E+00  1.931659812009E+00  1.805816921082E+00  1.684761887182E+00
  1.568526307263E+00  1.457130593113E+00  1.350583730497E+00  1.248883090916E+00
  1.152014299878E+00  1.059951165378E+00  9.726556699476E-01  8.900780292727E-01
  8.121568199596E-01  7.388191785264E-01  6.699810731374E-01  6.055476489877E-01
  5.454136475325E-01  4.894638990825E-01  4.375738874217E-01  3.896103843369E-01
  3.454321510540E-01  3.048907026955E-01  2.678311309707E-01  2.340929794103E-01
  2.035111645683E-01  1.759169357601E-01  1.511388650953E-01  1.290038588212E-01
  1.093381803353E-01  9.196847466461E-02  7.672278377934E-02  6.343154180559E-02
  5.192853906658E-02  4.205184390821E-02  3.364467148020E-02  2.655618905085E-02
  2.064224804170E-02  1.576603377853E-02  1.179862496677E-02  8.619456104474E-03
  6.116677432264E-03  4.187408569474E-03  2.737883674405E-03  1.683487765228E-03
  9.486857111829E-04  4.668473113562E-04  1.799737761681E-04  3.833276697265E-05
  1.088213148868E-08  3.039405288663E-05  1.015876796522E-04  1.917894518792E-04
  2.846286098846E-04  3.684858889261E-04  4.358085066989E-04  4.824342978782E-04
  5.069384576618E-04  5.100153378718E-04  4.939063653211E-04  4.618834583474E-04
  4.177953530861E-04  3.656820786308E-04  3.094605134469E-04  2.526815969440E-04
  1.983574485295E-04  1.488544525098E-04  1.058463896784E-04  7.032001774879E-05
  4.262419443631E-05  2.255275519940E-05  9.450939480782E-06  2.335219552941E-06
  1.691521686589E-08  1.220940956012E-06  4.692370624063E-06  9.285137185595E-06
  1.402901215532E-05  1.817291927674E-05  2.120451184415E-05  2.284766688242E-05
  2.304101599040E-05  2.190175360803E-05  1.967967517239E-05  1.670666684090E-05
  1.334669576318E-05  9.950770528365E-06  6.820423269723E-06  4.182103395686E-06
  2.173583204973E-06  8.421825675704E-07  1.534463997880E-07  7.964058333762E-09
  2.633884065102E-07  7.584446872803E-07  1.335826354863E-06  1.861326261897E-06
  2.237278363075E-06  2.409287968563E-06  2.366189070450E-06  2.134062253361E-06
  1.765864043544E-06  1.328671839014E-06  8.906889413688E-07  5.099774025973E-07
  2.264336076142E-07  5.787363940786E-08  3.611452736368E-10  0.000000000000E+00
  0.000000000000E+00  0.000000000000E+00  0.000000000000E+00  0.000000000000E+00
  0.000000000000E+00  0.000000000000E+00  0.000000000000E+00  0.000000000000E+00
  0.000000000000E+00  0.000000000000E+00  0.000000000000E+00  0.000000000000E+00
  0.000000000000E+00  0.000000000000E+00  0.000000000000E+00  0.000000000000E+00
  0.000000000000E+00  0.000000000000E+00  0.000000000000E+00  0.000000000000E+00
  0.000000000000E+00  0.000000000000E+00  0.000000000000E+00  0.000000000000E+00
  0.000000000000E+00  0.000000000000E+00  0.000000000000E+00  0.000000000000E+00
  0.000000000000E+00  0.000000000000E+00  0.000000000000E+00  0.000000000000E+00
  0.000000000000E+00  0.000000000000E+00  0.000000000000E+00  0.000000000000E+00
  0.000000000000E+00  0.000000000000E+00  0.000000000000E+00  0.000000000000E+00
  0.000000000000E+00  0.000000000000E+00  0.000000000000E+00  0.000000000000E+00
  0.000000000000E+00  0.000000000000E+00  0.000000000000E+00  0.000000000000E+00
  0.000000000000E+00  0.000000000000E+00  0.000000000000E+00  0.000000000000E+00
  0.000000000000E+00  0.000000000000E+00  0.000000000000E+00  0.000000000000E+00
  0.000000000000E+00  0.000000000000E+00  0.000000000000E+00  0.000000000000E+00
  0.000000000000E+00  0.000000000000E+00  0.000000000000E+00  0.000000000000E+00
  0.000000000000E+00  0.000000000000E+00  0.000000000000E+00  0.000000000000E+00
  0.000000000000E+00  0.000000000000E+00  0.000000000000E+00  0.000000000000E+00
  0.000000000000E+00  0.000000000000E+00  0.000000000000E+00  0.000000000000E+00
  0.000000000000E+00  0.000000000000E+00  0.000000000000E+00  0.000000000000E+00
  0.000000000000E+00  0.000000000000E+00  0.000000000000E+00  0.000000000000E+00
  0.000000000000E+00  0.000000000000E+00  0.000000000000E+00  0.000000000000E+00
  0.000000000000E+00  0.000000000000E+00
</data>
</radfunc>
</pseudocore-charge>
<semilocal-potentials set="lj">
<slps n="2" l="s" j="0.5" rc="1.20550819601" eref="-0.678222586241">
<radfunc>
<data npts="290">
  4.671272573334E+00  4.669223928395E+00  4.663101571452E+00  4.652893036451E+00
  4.638711412835E+00  4.620084834234E+00  4.596379612553E+00  4.569281952521E+00
  4.538873183984E+00  4.503491333663E+00  4.463712417720E+00  4.420598339215E+00
  4.368662837295E+00  4.314619944780E+00  4.251128199770E+00  4.187999876056E+00
  4.115652670403E+00  4.047416439768E+00  3.971100553190E+00  3.885827149119E+00
  3.790643713736E+00  3.706673527451E+00  3.615143905270E+00  3.515464831376E+00
  3.407018713311E+00  3.289163150338E+00  3.161234821332E+00  3.058270251388E+00
  2.948967835024E+00  2.833036507209E+00  2.710186591702E+00  2.580132486089E+00
  2.442595756942E+00  2.297308675190E+00  2.144018219229E+00  1.982490569389E+00
  1.812516111881E+00  1.633914963078E+00  1.509982093307E+00  1.382117690683E+00
  1.250298496240E+00  1.114511481030E+00  9.747548427187E-01  8.310390362840E-01
  6.833878342044E-01  5.318394105371E-01  3.764474422653E-01  2.172822201792E-01
  5.443176034986E-02 -1.119970939523E-01 -2.818775914044E-01 -4.550620256665E-01
 -6.313807365434E-01 -8.106411749543E-01 -9.926270487462E-01 -1.177097567893E+00
 -1.363786808886E+00 -1.552403219480E+00 -1.742629286183E+00 -1.934121387707E+00
 -2.126509858870E+00 -2.319399289544E+00 -2.512369084077E+00 -2.704974306334E+00
 -2.896746835372E+00 -3.087196856018E+00 -3.275814707557E+00 -3.369272414755E+00
 -3.462073112356E+00 -3.554148569192E+00 -3.645429804313E+00 -3.735847192203E+00
 -3.825330574862E+00 -3.913809380839E+00 -4.001212751257E+00 -4.087469672872E+00
 -4.172509118176E+00 -4.256260192505E+00 -4.338652288056E+00 -4.419615244681E+00
 -4.499079517218E+00 -4.576976349039E+00 -4.653237951353E+00 -4.727797687670E+00
 -4.800590262631E+00 -4.871551914180E+00 -4.940620607836E+00 -5.007736231459E+00
 -5.072840788641E+00 -5.135878588425E+00 -5.196796428714E+00 -5.255543770305E+00
 -5.312072898111E+00 -5.366339065780E+00 -5.418300619638E+00 -5.467919097670E+00
 -5.515159299237E+00 -5.559989321293E+00 -5.602380557179E+00 -5.642307654625E+00
 -5.679748430289E+00 -5.714683739218E+00 -5.747097298739E+00 -5.776975467726E+00
 -5.804306983635E+00 -5.829082661338E+00 -5.851295059134E+00 -5.870938119006E+00
 -5.888006789424E+00 -5.902496639731E+00 -5.914403476502E+00 -5.923722972478E+00
 -5.930450318941E+00 -5.934579912684E+00 -5.936105088475E+00 -5.935017907765E+00
 -5.931309014110E+00 -5.924967565553E+00 -5.915981253949E+00 -5.904336421109E+00
 -5.890018281500E+00 -5.873011261215E+00 -5.853299462828E+00 -5.830867265598E+00
 -5.805700070172E+00 -5.777785196295E+00 -5.747112941006E+00 -5.713677803204E+00
 -5.677479878128E+00 -5.638526422084E+00 -5.596833583500E+00 -5.552428290925E+00
 -5.505350281891E+00 -5.455654248443E+00 -5.403412065732E+00 -5.348715059433E+00
 -5.291676255997E+00 -5.232432547297E+00 -5.171146688417E+00 -5.108009034739E+00
 -5.043238912727E+00 -4.977085508742E+00 -4.909828152706E+00 -4.841775869416E+00
 -4.773266070890E+00 -4.704662269380E+00 -4.636350703519E+00 -4.568735790522E+00
 -4.502234346027E+00 -4.437268550416E+00 -4.374257686256E+00 -4.313608742937E+00
 -4.255705800208E+00 -4.200898554116E+00 -4.149494676132E+00 -4.100176034276E+00
 -4.051377046524E+00 -4.003130479167E+00 -3.955437699288E+00 -3.908304599120E+00
 -3.861738851244E+00 -3.815747800319E+00 -3.770339466312E+00 -3.725521943746E+00