<?xml version="1.0" encoding="UTF-8" ?>
<psml version="1.1" energy_unit="hartree" length_unit="bohr"
 uuid="079697f0-53a1-11e8-62a9-2076fd5fcf3d"
 xmlns="http://esl.cecam.org/PSML/ns/1.1">
<provenance creator="ONCVPSP-3.3.0+psml-3.3.0-73 (fully-relativistic)"
 date="2018-05-09">
<annotation action="semilocal-pseudopotential-generation"
 action-cont="projectors-generation" />
<input-file name="oncvpsp-input">
<![CDATA[# atsym z nc nv iexc psfile
Sr 38 6 3 -116133 upf
# n l f
1 0 2.0
2 0 2.0
2 1 6.0
3 0 2.0
3 1 6.0
3 2 10.0
4 0 2.0
4 1 6.0
5 0 2.0
# lmax
2
# l rc ep ncon nbas qcut
0 1.5 0.0 3 8 6.8
1 1.3 0.0 4 8 8.2
2 1.5 0.0 4 8 8.6
# lloc lpopt rc5 dvloc0
4 5 1.3 0.0
# l nproj debl
0 2 1.0
1 2 3.0
2 2 3.5
# icmod fcfact rcfact
3 6.0 1.35
# epsh1 epsh2 depsh
-12.0 12.0 0.02
# rlmax drl
6.0 0.01
 0
]]>
</input-file>
</provenance>
<pseudo-atom-spec atomic-label="Sr" atomic-number="38" z-pseudo="10"
 flavor="Hamann&apos;s oncvpsp" relativity="dirac" spin-dft="no"
 core-corrections="yes">
<annotation pseudo-energy="-30.8987232287" />
<exchange-correlation>
<annotation oncvpsp-xc-code="-116133" oncvpsp-xc-type="libxc-interface" />
<libxc-info number-of-functionals="2">
<functional name="Perdew, Burke &amp; Ernzerhof SOL (GGA)" type="exchange"
 id="116" />
<functional name="Perdew, Burke &amp; Ernzerhof SOL (GGA)" type="correlation"
 id="133" />
</libxc-info>
</exchange-correlation>
<valence-configuration total-valence-charge="10">
<shell n="4" l="s" occupation="2" />
<shell n="4" l="p" occupation="6" />
<shell n="5" l="s" occupation="2" />
</valence-configuration>
</pseudo-atom-spec>
<grid npts="457">
<annotation type="sampled from oncvpsp log grid"
 recipe="r(i:1..N) = r1*exp(a*(i-1)) + r=0; resampled"
 recipe-cont="r1: scale; a: step" scale="0.131578947368E-04"
 step="0.119285708653E-01" delta="0.500000000000E-02" rmax="44.3233076602" />
<grid-data>
  0.000000000000E+00  5.001285356115E-03  1.010955111220E-02  1.516593874179E-02
  2.019303497754E-02  2.532977517910E-02  3.065628572608E-02  3.579861277629E-02
  4.081801070727E-02  4.598931705399E-02  5.120136896821E-02  5.632817400049E-02
  6.196832721796E-02  6.736485206945E-02  7.323133442633E-02  7.866472394973E-02
  8.450124311626E-02  8.969446845692E-02  9.520685584117E-02  1.010580201333E-01
  1.072687816757E-01  1.125111070896E-01  1.180096298362E-01  1.237768705182E-01
  1.298259616315E-01  1.361706774698E-01  1.428254654891E-01  1.480291296502E-01
  1.534223826959E-01  1.590121320562E-01  1.648055368242E-01  1.708100169258E-01
  1.770332626221E-01  1.834832443594E-01  1.901682229770E-01  1.970967602872E-01
  2.042777300411E-01  2.117203292939E-01  2.168321049244E-01  2.220672992657E-01
  2.274288921392E-01  2.329199353110E-01  2.385435542291E-01  2.443029498024E-01
  2.502014002225E-01  2.562422628294E-01  2.624289760232E-01  2.687650612203E-01
  2.752541248584E-01  2.818998604490E-01  2.887060506796E-01  2.956765695673E-01
  3.028153846629E-01  3.101265593102E-01  3.176142549582E-01  3.252827335299E-01
  3.331363598482E-01  3.411796041204E-01  3.494170444823E-01  3.578533696043E-01
  3.664933813600E-01  3.753419975595E-01  3.844042547486E-01  3.936853110753E-01
  4.031904492259E-01  4.129250794320E-01  4.228947425498E-01  4.279694794604E-01
  4.331051132139E-01  4.383023745725E-01  4.435620030674E-01  4.488847471042E-01
  4.542713640694E-01  4.597226204382E-01  4.652392918835E-01  4.708221633861E-01
  4.764720293467E-01  4.821896936989E-01  4.879759700233E-01  4.938316816636E-01
  4.997576618435E-01  5.057547537857E-01  5.118238108311E-01  5.179656965611E-01
  5.241812849198E-01  5.304714603388E-01  5.368371178629E-01  5.432791632772E-01
  5.497985132366E-01  5.563960953954E-01  5.630728485402E-01  5.698297227226E-01
  5.766676793953E-01  5.835876915481E-01  5.905907438466E-01  5.976778327728E-01
  6.048499667661E-01  6.121081663673E-01  6.194534643637E-01  6.268869059360E-01
  6.344095488073E-01  6.420224633929E-01  6.497267329537E-01  6.575234537491E-01
  6.654137351941E-01  6.733987000164E-01  6.814794844166E-01  6.896572382296E-01
  6.979331250884E-01  7.063083225894E-01  7.147840224605E-01  7.233614307300E-01
  7.320417678988E-01  7.408262691136E-01  7.497161843429E-01  7.587127785551E-01
  7.678173318977E-01  7.770311398805E-01  7.863555135591E-01  7.957917797218E-01
  8.053412810784E-01  8.150053764514E-01  8.247854409688E-01  8.346828662604E-01
  8.446990606555E-01  8.548354493834E-01  8.650934747760E-01  8.754745964733E-01
  8.859802916310E-01  8.966120551306E-01  9.073713997921E-01  9.182598565896E-01
  9.292789748687E-01  9.404303225671E-01  9.517154864379E-01  9.631360722752E-01
  9.746937051425E-01  9.863900296042E-01  9.982267099595E-01  1.010205430479E+00
  1.022327895645E+00  1.034595830392E+00  1.047010980357E+00  1.059575112121E+00
  1.072290013467E+00  1.085157493629E+00  1.098179383552E+00  1.111357536155E+00
  1.124693826589E+00  1.138190152508E+00  1.151848434338E+00  1.165670615550E+00
  1.179658662936E+00  1.193814566892E+00  1.208140341694E+00  1.222638025795E+00
  1.237309682104E+00  1.252157398289E+00  1.267183287069E+00  1.282389486514E+00
  1.297778160352E+00  1.313351498276E+00  1.329111716255E+00  1.345061056850E+00
  1.361201789533E+00  1.377536211007E+00  1.394066645539E+00  1.410795445286E+00
  1.427724990629E+00  1.444857690517E+00  1.462195982803E+00  1.479742334596E+00
  1.497499242612E+00  1.515469233523E+00  1.533654864325E+00  1.552058722697E+00
  1.570683427369E+00  1.589531628498E+00  1.608606008040E+00  1.627909280136E+00
  1.647444191498E+00  1.667213521796E+00  1.687220084058E+00  1.707466725066E+00
  1.727956325767E+00  1.748691801676E+00  1.769676103296E+00  1.790912216536E+00
  1.812403163134E+00  1.834152001092E+00  1.856161825105E+00  1.878435767006E+00
  1.900976996210E+00  1.923788720165E+00  1.946874184807E+00  1.970236675025E+00
  1.993879515125E+00  2.017806069306E+00  2.042019742138E+00  2.066523979044E+00
  2.091322266792E+00  2.116418133994E+00  2.141815151602E+00  2.167516933421E+00
  2.193527136622E+00  2.219849462261E+00  2.246487655808E+00  2.273445507678E+00
  2.300726853770E+00  2.328335576016E+00  2.356275602928E+00  2.384550910163E+00
  2.413165521085E+00  2.442123507338E+00  2.471428989426E+00  2.501086137299E+00
  2.531099170947E+00  2.561472360998E+00  2.592210029330E+00  2.623316549682E+00
  2.654796348278E+00  2.686653904457E+00  2.718893751311E+00  2.751520476327E+00
  2.784538722043E+00  2.817953186707E+00  2.851768624948E+00  2.885989848447E+00
  2.920621726628E+00  2.955669187348E+00  2.991137217596E+00  3.027030864207E+00
  3.063355234578E+00  3.100115497393E+00  3.137316883361E+00  3.174964685962E+00
  3.213064262193E+00  3.251621033339E+00  3.290640485740E+00  3.330128171568E+00
  3.370089709627E+00  3.410530786143E+00  3.451457155576E+00  3.492874641443E+00
  3.534789137141E+00  3.577206606786E+00  3.620133086068E+00  3.663574683101E+00
  3.707537579298E+00  3.752028030249E+00  3.797052366612E+00  3.842616995012E+00
  3.888728398952E+00  3.935393139739E+00  3.982617857416E+00  4.030409271705E+00
  4.078774182966E+00  4.127719473161E+00  4.177252106839E+00  4.227379132121E+00
  4.278107681707E+00  4.329444973887E+00  4.381398313574E+00  4.433975093337E+00
  4.487182794457E+00  4.541028987990E+00  4.595521335846E+00  4.650667591876E+00
  4.706475602979E+00  4.762953310215E+00  4.820108749937E+00  4.877950054936E+00
  4.936485455596E+00  4.995723281063E+00  5.055671960436E+00  5.116340023961E+00
  5.177736104248E+00  5.239868937499E+00  5.302747364749E+00  5.366380333126E+00
  5.430776897124E+00  5.495946219889E+00  5.561897574528E+00  5.628640345422E+00
  5.696184029567E+00  5.764538237922E+00  5.833712696777E+00  5.903717249139E+00
  5.974561856128E+00  6.046256598402E+00  6.118811677583E+00  6.192237417714E+00
  6.266544266726E+00  6.341742797927E+00  6.417843711502E+00  6.494857836040E+00
  6.572796130072E+00  6.651669683633E+00  6.731489719837E+00  6.812267596475E+00
  6.894014807633E+00  6.976742985324E+00  7.060463901148E+00  7.145189467962E+00
  7.230931741577E+00  7.317702922476E+00  7.405515357546E+00  7.494381541837E+00
  7.584314120339E+00  7.675325889783E+00  7.767429800460E+00  7.860638958066E+00
  7.954966625562E+00  8.050426225069E+00  8.147031339770E+00  8.244795715847E+00
  8.343733264437E+00  8.443858063611E+00  8.545184360374E+00  8.647726572698E+00
  8.751499291571E+00  8.856517283070E+00  8.962795490467E+00  9.070349036352E+00
  9.179193224788E+00  9.289343543486E+00  9.400815666008E+00  9.513625454000E+00
  9.627788959448E+00  9.743322426961E+00  9.860242296085E+00  9.978565203638E+00
  1.009830798608E+01  1.021948768191E+01  1.034212153410E+01  1.046622699251E+01
  1.059182171642E+01  1.071892357701E+01  1.084755065994E+01  1.097772126786E+01
  1.110945392307E+01  1.124276737015E+01  1.137768057859E+01  1.151421274553E+01
  1.165238329848E+01  1.179221189806E+01  1.193371844084E+01  1.207692306213E+01
  1.222184613887E+01  1.236850829254E+01  1.251693039205E+01  1.266713355675E+01
  1.281913915944E+01  1.297296882935E+01  1.312864445530E+01  1.328618818877E+01
  1.344562244703E+01  1.360696991639E+01  1.377025355539E+01  1.393549659806E+01
  1.410272255723E+01  1.427195522792E+01  1.444321869065E+01  1.461653731494E+01
  1.479193576272E+01  1.496943899187E+01  1.514907225978E+01  1.533086112689E+01
  1.551483146042E+01  1.570100943794E+01  1.588942155120E+01  1.608009460981E+01
  1.627305574513E+01  1.646833241407E+01  1.666595240304E+01  1.686594383188E+01
  1.706833515786E+01  1.727315517975E+01  1.748043304191E+01  1.769019823841E+01
  1.790248061727E+01  1.811731038468E+01  1.833471810930E+01  1.855473472661E+01
  1.877739154333E+01  1.900272024185E+01  1.923075288475E+01  1.946152191937E+01
  1.969506018240E+01  1.993140090459E+01  2.017057771544E+01  2.041262464803E+01
  2.065757614381E+01  2.090546705753E+01  2.115633266222E+01  2.141020865417E+01
  2.166713115802E+01  2.192713673191E+01  2.219026237270E+01  2.245654552117E+01
  2.272602406742E+01  2.299873635623E+01  2.327472119251E+01  2.355401784682E+01
  2.383666606098E+01  2.412270605371E+01  2.441217852636E+01  2.470512466867E+01
  2.500158616470E+01  2.530160519867E+01  2.560522446106E+01  2.591248715459E+01
  2.622343700044E+01  2.653811824445E+01  2.685657566338E+01  2.717885457134E+01
  2.750500082620E+01  2.783506083611E+01  2.816908156615E+01  2.850711054494E+01
  2.884919587148E+01  2.919538622194E+01  2.954573085660E+01  2.990027962688E+01
  3.025908298240E+01  3.062219197819E+01  3.098965828193E+01  3.136153418131E+01
  3.173787259149E+01  3.211872706259E+01  3.250415178734E+01  3.289420160879E+01
  3.328893202809E+01  3.368839921243E+01  3.409266000298E+01  3.450177192301E+01
  3.491579318609E+01  3.533478270432E+01  3.575880009677E+01  3.618790569794E+01
  3.662216056631E+01  3.706162649311E+01  3.750636601102E+01  3.795644240316E+01
  3.841191971199E+01  3.887286274854E+01  3.933933710152E+01  3.981140914674E+01
  4.028914605650E+01  4.077261580918E+01  4.126188719889E+01  4.175702984527E+01
  4.225811420342E+01  4.276521157386E+01  4.327839411275E+01  4.379773484210E+01
  4.432330766020E+01
</grid-data>
</grid>
<valence-charge total-charge="10" is-unscreening-charge="yes"
 rescaled-to-z-pseudo="no">
<radfunc>
<data npts="457">
  1.580289262533E-02  1.587937862068E-02  1.611560216663E-02  1.650733257713E-02
  1.705344771888E-02  1.777414495928E-02  1.869697048155E-02  1.975961607451E-02
  2.096201449913E-02  2.237432622292E-02  2.397932366998E-02  2.573958260477E-02
  2.788885591460E-02  3.015916706260E-02  3.287101890211E-02  3.561573015760E-02
  3.882142499366E-02  4.190470089855E-02  4.542282261180E-02  4.944246278440E-02
  5.404171951271E-02  5.819955796007E-02  6.284104524691E-02  6.802815829941E-02
  7.383173064641E-02  8.033283244429E-02  8.762437182350E-02  9.367530521284E-02
  1.002812092514E-01  1.074983753446E-01  1.153893178681E-01  1.240234864338E-01
  1.334780550104E-01  1.438387940951E-01  1.552010319975E-01  1.676707109242E-01
  1.813655428724E-01  1.964162692643E-01  2.072743978178E-01  2.188461825641E-01
  2.311818186654E-01  2.443350529759E-01  2.583634063217E-01  2.733284032397E-01
  2.892958081507E-01  3.063358666385E-01  3.245235501470E-01  3.439388019938E-01
  3.646667821197E-01  3.867981074422E-01  4.104290840528E-01  4.356619267800E-01
  4.626049608239E-01  4.913727992524E-01  5.220864891106E-01  5.548736177400E-01
  5.898683696129E-01  6.272115225565E-01  6.670503706654E-01  7.095385594743E-01
  7.548358170833E-01  8.031075629031E-01  8.545243735224E-01  9.092612829132E-01
  9.674968918175E-01  1.029412258726E+00  1.095189542454E+00  1.129583231794E+00
  1.165010363998E+00  1.201493237300E+00  1.239053853243E+00  1.277713835837E+00
  1.317494344363E+00  1.358415979505E+00  1.400498682523E+00  1.443761627175E+00
  1.488223104115E+00  1.533900397481E+00  1.580809653434E+00  1.628965740403E+00
  1.678382100836E+00  1.729070594259E+00  1.781041331521E+00  1.834302500110E+00
  1.888860180497E+00  1.944718153509E+00  2.001877698828E+00  2.060337384738E+00
  2.120092849397E+00  2.181136573945E+00  2.243457647915E+00  2.307041527513E+00
  2.371869787471E+00  2.437919867324E+00  2.505164813136E+00  2.573573015833E+00
  2.643107947538E+00  2.713727897459E+00  2.785385709102E+00  2.858028520799E+00
  2.931597511766E+00  3.006027656130E+00  3.081247487592E+00  3.157178877648E+00
  3.233736830483E+00  3.310829297897E+00  3.388357017818E+00  3.466213380133E+00
  3.544284323740E+00  3.622448268835E+00  3.700576088549E+00  3.778531124064E+00
  3.856169247349E+00  3.933338975543E+00  4.009881640897E+00  4.085631619927E+00
  4.160416625143E+00  4.234058062312E+00  4.306371455715E+00  4.377166943315E+00
  4.446249843016E+00  4.513421290519E+00  4.578478948355E+00  4.641217784836E+00
  4.701430920646E+00  4.758910539822E+00  4.813448860801E+00  4.864839162234E+00
  4.912876857212E+00  4.957360608647E+00  4.998093477667E+00  5.034884096167E+00
  5.067547854043E+00  5.095908091238E+00  5.119797284505E+00  5.139058218790E+00
  5.153545133375E+00  5.163124833383E+00  5.167677757933E+00  5.167098997135E+00
  5.161299251195E+00  5.150205726081E+00  5.133762961511E+00  5.111933588292E+00
  5.084699013260E+00  5.052060031133E+00  5.014037363419E+00  4.970672124999E+00
  4.922026219104E+00  4.868182661042E+00  4.809245830143E+00  4.745341648009E+00
  4.676617679281E+00  4.603243148836E+00  4.525408866738E+00  4.443327049509E+00
  4.357231023603E+00  4.267374794583E+00  4.174032463685E+00  4.077497472496E+00
  3.978081656663E+00  3.876114091099E+00  3.771938572991E+00  3.665906147539E+00
  3.558364939988E+00  3.449657224125E+00  3.340119714668E+00  3.230081507757E+00
  3.119862985032E+00  3.009774635753E+00  2.900115958086E+00  2.791174426250E+00
  2.683224524990E+00  2.576526854047E+00  2.471321689235E+00  2.367811075733E+00
  2.266163703770E+00  2.166542674813E+00  2.069091584330E+00  1.973938961343E+00
  1.881197989340E+00  1.790966932895E+00  1.703329571301E+00  1.618355680171E+00
  1.536101556462E+00  1.456610580786E+00  1.379913811858E+00  1.306030607158E+00
  1.234969264752E+00  1.166727681157E+00  1.101294020418E+00  1.038647389816E+00
  9.787585179158E-01  9.215904309283E-01  8.670991236622E-01  8.152342216233E-01
  7.659396311768E-01  7.191541748524E-01  6.748122093493E-01  6.328442239090E-01
  5.931774170975E-01  5.557362502736E-01  5.204429762707E-01  4.872181420640E-01
  4.559810644162E-01  4.266502777102E-01  3.991439533770E-01  3.733802905144E-01
  3.492778774707E-01  3.267560243329E-01  3.057350664185E-01  2.861366390158E-01
  2.678839237595E-01  2.509018671595E-01  2.351173719267E-01  2.204594618547E-01
  2.068594211341E-01  1.942509090800E-01  1.825700513676E-01  1.717555089801E-01
  1.617485261916E-01  1.524929590377E-01  1.439352858613E-01  1.360246016620E-01
  1.287125981155E-01  1.219535312386E-01  1.157041787388E-01  1.099237890723E-01
  1.045740241160E-01  9.961889712347E-02  9.502470729156E-02  9.075997184389E-02
  8.679535609810E-02  8.310360159624E-02  7.965945210366E-02  7.643957716400E-02
  7.342249294102E-02  7.058848025167E-02  6.791949994523E-02  6.539910604631E-02
  6.301235730295E-02  6.074572792965E-02  5.858701839835E-02  5.652526711431E-02
  5.455066373789E-02  5.265446479986E-02  5.082891212813E-02  4.906715447418E-02
  4.736317260957E-02  4.571170806143E-02  4.410819557329E-02  4.254869931367E-02
  4.102985280583E-02  3.954880251744E-02  3.810315502354E-02  3.669092763978E-02
  3.531050241133E-02  3.396058333632E-02  3.264015669856E-02  3.134845438190E-02
  3.008492003841E-02  2.884917798172E-02  2.764100467782E-02  2.646030270595E-02
  2.530707706271E-02  2.418141368321E-02  2.308346005354E-02  2.201340778921E-02
  2.097147705480E-02  1.995790270047E-02  1.897292199216E-02  1.801676381362E-02
  1.708963922086E-02  1.619173323323E-02  1.532319775021E-02  1.448414548997E-02
  1.367464485468E-02  1.289471563837E-02  1.214432550587E-02  1.142338718578E-02
  1.073175633499E-02  1.006923004678E-02  9.435545987495E-03  8.830382148008E-03
  8.253357261249E-03  7.704031778580E-03  7.181909522825E-03  6.686439947475E-03
  6.217020994234E-03  5.773002514572E-03  5.353690205463E-03  4.958349994543E-03
  4.586212797029E-03  4.236479556834E-03  3.908326478103E-03  3.600910351260E-03
  3.313373879365E-03  3.044850915845E-03  2.794471532771E-03  2.561366849099E-03
  2.344673559919E-03  2.143538120044E-03  1.957120547539E-03  1.784597824610E-03
  1.625166884171E-03  1.478047180189E-03  1.342482848320E-03  1.217744470461E-03
  1.103130462503E-03  9.979681089771E-04  9.016142714223E-04  8.134557994090E-04
  7.329096742300E-04  6.594229155797E-04  5.924722811359E-04  5.315637880005E-04
  4.762320835594E-04  4.260396915860E-04  3.805761574437E-04  3.394571141172E-04
  3.023232885993E-04  2.688394659382E-04  2.386934260702E-04  2.115948664637E-04
  1.872743216252E-04  1.654820886863E-04  1.459871666361E-04  1.285762152814E-04
  1.130525387291E-04  9.923509707544E-05  8.695754905755E-05  7.606732765556E-05
  6.642475001471E-05  5.790216256643E-05  5.038312184700E-05  4.376161122078E-05
  3.794129349479E-05  3.283479924440E-05  2.836305054169E-05  2.445461967701E-05
  2.104512237911E-05  1.807664496414E-05  1.549720477351E-05  1.326024319111E-05
  1.132415046192E-05  9.651821464915E-06  8.210241525290E-06  6.970101284465E-06
  5.905439584063E-06  4.993313262349E-06  4.213492710920E-06  3.548181996678E-06
  2.981762320418E-06  2.500557559357E-06  2.092620627091E-06  1.747539380714E-06
  1.456260810958E-06  1.210932266764E-06  1.004758489849E-06  8.318732668736E-07
  6.872245456373E-07  5.664719064079E-07  4.658953289172E-07  3.823142486933E-07
  3.130159522493E-07  2.556924182560E-07  2.083847703087E-07  1.694345654787E-07
  1.374412008163E-07  1.112247767400E-07  8.979381131160E-08  7.231725233719E-08
  5.810028472942E-08  4.656347837725E-08  3.722486671917E-08  2.968458821060E-08
  2.361176186550E-08  1.873330404530E-08  1.482442671061E-08  1.170058752651E-08
  9.210689628915E-09  7.231353649628E-09  5.662106906582E-09  4.421354650799E-09
  3.443016085278E-09  2.673723698407E-09  2.070498449955E-09  1.598825672014E-09
  1.231067355983E-09  9.451559384032E-10  7.235229135363E-10  5.522227207745E-10
  4.202185024193E-10  3.188016148781E-10  2.411213070244E-10  1.818048471672E-10
  1.366516695176E-10  1.023878983253E-10  7.646996092311E-11  5.692798011142E-11
  4.224129490401E-11  3.123984348749E-11  2.302629424076E-11  1.691476544846E-11
  1.238276276086E-11  9.033612086316E-12  6.567197254572E-12  4.757245935057E-12
  3.433760490463E-12  2.469476705244E-12  1.769464459818E-12  1.263170330760E-12
  8.983510602920E-13  6.364657371732E-13  4.491890647352E-13  3.157829590821E-13
  2.211227787606E-13  1.542208894201E-13  1.071265790016E-13  7.410963993075E-14
  5.105690193432E-14  3.502797967886E-14  2.392957077406E-14  1.627765948660E-14
  1.102462957604E-14  7.434102371502E-15  4.990714876623E-15  3.335366747895E-15
  2.218950844695E-15  1.469438343132E-15  9.685693245743E-16  6.354208640423E-16
  4.148767651668E-16  2.695744954900E-16  1.743072270075E-16  1.121510757988E-16
  7.179880114697E-17  4.573309235512E-17  2.898125451578E-17  1.827049526565E-17
  1.145784520458E-17  7.147393763153E-18  4.434624976594E-18  2.736544328744E-18
  1.679407552595E-18  1.024917768430E-18  6.219739242737E-19  3.752979037172E-19
  2.251495631758E-19  1.342848169673E-19  7.961831301701E-20  4.692434878010E-20
  2.748853554266E-20  0.000000000000E+00  0.000000000000E+00  0.000000000000E+00
  0.000000000000E+00
</data>
</radfunc>
</valence-charge>
<pseudocore-charge matching-radius="0.929278974869"
 number-of-continuous-derivatives="4">
<annotation model-charge-form="Teter function with specified parameters" />
<radfunc>
<data npts="290">
  3.126273837610E+01  3.126116861017E+01  3.125632474665E+01  3.124830637526E+01
  3.123715731302E+01  3.122249609246E+01  3.120380825887E+01  3.118240589799E+01
  3.115833717261E+01  3.113026378616E+01  3.109861322634E+01  3.106420275235E+01
  3.102260390799E+01  3.097914437372E+01  3.092785937990E+01  3.087662254244E+01
  3.081759940471E+01  3.076162947675E+01  3.069868265806E+01  3.062790549830E+01
  3.054834451828E+01  3.047766034418E+01  3.040007546364E+01  3.031493562986E+01
  3.022152865058E+01  3.011908012493E+01  3.000674906035E+01  2.991546949384E+01
  2.981770708714E+01  2.971302445861E+01  2.960095825986E+01  2.948101819381E+01
  2.935268609294E+01  2.921541507979E+01  2.906862883533E+01  2.891172100539E+01
  2.874405477949E+01  2.856496268194E+01  2.843887675828E+01  2.830718869104E+01
  2.816967824369E+01  2.802611940364E+01  2.787628054403E+01  2.771992462983E+01
  2.755680947305E+01  2.738668804185E+01  2.720930882907E+01  2.702441628577E+01
  2.683175132572E+01  2.663105190719E+01  2.642205369878E+01  2.620449083590E+01
  2.597809677548E+01  2.574260525591E+01  2.549775137016E+01  2.524327275950E+01
  2.497891093576E+01  2.470441273983E+01  2.441953194386E+01  2.412403100459E+01
  2.381768297469E+01  2.350027357829E+01  2.317160345627E+01  2.283149058583E+01
  2.247977287737E+01  2.211631095047E+01  2.174099108849E+01  2.154885667977E+01
  2.135372836939E+01  2.115560058295E+01  2.095446996739E+01  2.075033550293E+01
  2.054319861716E+01  2.033306330135E+01  2.011993622866E+01  1.990382687416E+01
  1.968474763651E+01  1.946271396093E+01  1.923774446340E+01  1.900986105580E+01
  1.877908907156E+01  1.854545739170E+01  1.830899857086E+01  1.806974896290E+01
  1.782774884575E+01  1.758304254506E+01  1.733567855619E+01  1.708570966409E+01
  1.683319306055E+01  1.657819045818E+01  1.632076820068E+01  1.606099736870E+01
  1.579895388067E+01  1.553471858782E+01  1.526837736290E+01  1.500002118158E+01
  1.472974619589E+01  1.445765379895E+01  1.418385067992E+01  1.390844886857E+01
  1.363156576833E+01  1.335332417705E+01  1.307385229443E+01  1.279328371524E+01
  1.251175740725E+01  1.222941767295E+01  1.194641409401E+01  1.166290145758E+01
  1.137903966326E+01  1.109499360996E+01  1.081093306155E+01  1.052703249040E+01
  1.024347089792E+01  9.960431611282E+00  9.678102055397E+00  9.396673499580E+00
  9.116340778098E+00  8.837301984107E+00  8.559758136475E+00  8.283912819130E+00
  8.009971792710E+00  7.738142578399E+00  7.468634014018E+00  7.201655782594E+00
  6.937417913812E+00  6.676130258943E+00  6.418001940082E+00  6.163240774711E+00
  5.912052676873E+00  5.664641036484E+00  5.421206078557E+00  5.181944204408E+00
  4.947047317177E+00  4.716702134280E+00  4.491089489735E+00  4.270383629537E+00
  4.054751503626E+00  3.844352058222E+00  3.639335532611E+00  3.439842764752E+00
  3.246004510305E+00  3.057940779945E+00  2.875760200033E+00  2.699559401909E+00
  2.529422445215E+00  2.365420280801E+00  2.207610258796E+00  2.056035687496E+00
  1.910725448651E+00  1.771693674665E+00  1.638939493043E+00  1.512446843217E+00
  1.392184370559E+00  1.278105402016E+00  1.170148007347E+00  1.068235149386E+00
  9.722749261444E-01  8.821609068432E-01  7.977725631774E-01  7.189757962524E-01
  6.456235586818E-01  5.775565703354E-01  5.146041251538E-01  4.565849853405E-01
  4.033083580906E-01  3.545749488524E-01  3.101780839483E-01  2.699048942296E-01
  2.335375503207E-01  2.008545389530E-01  1.716319689065E-01  1.456448942068E-01
  1.226686414775E-01  1.024801277586E-01  8.485915468352E-02  6.958966469098E-02
  5.646094494829E-02  4.526876489799E-02  3.581643382586E-02  2.791576559052E-02
  2.138793866139E-02  1.606424087791E-02  1.178668986288E-02  8.408521780188E-03
  5.794543100495E-03  3.821342197920E-03  2.377359909142E-03  1.362820599278E-03
  6.895277457874E-04  2.805305156898E-04  6.967021152271E-05  1.017733502222E-06
  2.821528375451E-05  1.137373585523E-04  2.280875744966E-04  3.489489982896E-04
  4.603063488814E-04  5.515586775445E-04  6.166408808759E-04  6.531716538194E-04
  6.616442511974E-04  6.446747214130E-04  6.063201478432E-04  5.514769430343E-04
  4.853664662906E-04  4.131122698422E-04  3.394102278852E-04  2.682897801133E-04
  2.029616443233E-04  1.457447370845E-04  9.806279585024E-05  6.049941559089E-05
  3.289897454885E-05  1.450027952156E-05  4.089735398479E-06  1.614295439569E-07
  1.072679561537E-06  5.185251620661E-06  1.098451525378E-05  1.717113425711E-05
  2.272235928574E-05  2.692243397821E-05  2.936390161749E-05  2.992356308328E-05
  2.871837014598E-05  2.604755267426E-05  2.232772405047E-05  1.802757925418E-05
  1.360813290678E-05  9.473321236995E-06  5.934330648148E-06  3.189362047252E-06
  1.318854907600E-06  2.946389302182E-07  1.996305512688E-10  2.583527722137E-07
  8.621947180775E-07  1.605254460302E-06  2.307287794346E-06  2.833043609941E-06
  3.102473578287E-06  3.092099078284E-06  2.828433187694E-06  2.375331965801E-06
  1.817799389159E-06  1.245021933406E-06  7.352464114174E-07  3.445820655174E-07
  1.010021152456E-07  3.877021729945E-09  0.000000000000E+00  0.000000000000E+00
  0.000000000000E+00  0.000000000000E+00  0.000000000000E+00  0.000000000000E+00
  0.000000000000E+00  0.000000000000E+00  0.000000000000E+00  0.000000000000E+00
  0.000000000000E+00  0.000000000000E+00  0.000000000000E+00  0.000000000000E+00
  0.000000000000E+00  0.000000000000E+00  0.000000000000E+00  0.000000000000E+00
  0.000000000000E+00  0.000000000000E+00  0.000000000000E+00  0.000000000000E+00
  0.000000000000E+00  0.000000000000E+00  0.000000000000E+00  0.000000000000E+00
  0.000000000000E+00  0.000000000000E+00  0.000000000000E+00  0.000000000000E+00
  0.000000000000E+00  0.000000000000E+00  0.000000000000E+00  0.000000000000E+00
  0.000000000000E+00  0.000000000000E+00  0.000000000000E+00  0.000000000000E+00
  0.000000000000E+00  0.000000000000E+00
</data>
</radfunc>
</pseudocore-charge>
<semilocal-potentials set="lj">
<slps n="4" l="s" j="0.5" rc="1.51546923352" eref="-1.50150086885">
<radfunc>
<data npts="290">
  8.566120228089E+01  8.558092949663E+01  8.533401117460E+01  8.492785501291E+01
  8.436841127935E+01  8.364194965576E+01  8.273082546782E+01  8.170727477215E+01
  8.058084954606E+01  7.929883906995E+01  7.789300635827E+01  7.641011332909E+01
  7.467775687281E+01  7.293477394064E+01  7.096074626773E+01  6.907266239045E+01
  6.699501324918E+01  6.511478449620E+01  6.309759037585E+01  6.094384252875E+01
  5.865608540517E+01  5.673260121909E+01  5.473009927558E+01  5.265330171461E+01
  5.050799498983E+01  4.830100550137E+01  4.604014513836E+01  4.431435727594E+01
  4.256712316934E+01  4.080263055655E+01  3.902524581624E+01  3.723947284821E+01
  3.544990906332E+01  3.366119938627E+01  3.187798924598E+01  3.010487756550E+01
  2.834637076240E+01  2.660683873273E+01  2.545977096583E+01  2.432419453693E+01
  2.320125285736E+01  2.209203824697E+01  2.099758832239E+01  1.991888284643E+01
  1.885684105161E+01  1.781231944502E+01  1.678611009542E+01  1.577893939783E+01
  1.479146730549E+01  1.382428701454E+01  1.287792508216E+01  1.195284195556E+01
  1.104943288621E+01  1.016802920119E+01  9.308899902274E+00  8.472253561881E+00
  7.658240485019E+00  6.866955106358E+00  6.098438592304E+00  5.352681619161E+00
  4.629627300048E+00  3.929174235200E+00  3.251179662504E+00  2.595462687508E+00
  1.961807574745E+00  1.349967084738E+00  7.596658436402E-01  4.724995284672E-01
  1.906037348838E-01 -8.606235904072E-02 -3.575406955737E-01 -6.238742306007E-01
 -8.851068269083E-01 -1.141283147498E+00 -1.392448548954E+00 -1.638648974899E+00
 -1.879930849550E+00 -2.116340971423E+00 -2.347926407206E+00 -2.574734385844E+00
 -2.796812192882E+00 -3.014207065130E+00 -3.226966085700E+00 -3.435136079520E+00
 -3.638763509401E+00 -3.837894372786E+00 -4.032574099305E+00 -4.222847449301E+00
 -4.408758413514E+00 -4.590350114105E+00 -4.767664707297E+00 -4.940743287863E+00
 -5.109625795795E+00 -5.274350925464E+00 -5.434956037667E+00 -5.591477074962E+00
 -5.743948480747E+00 -5.892403122577E+00 -6.036872220266E+00 -6.177385279339E+00
 -6.313970030477E+00 -6.446652375603E+00 -6.575456341352E+00 -6.700404040650E+00
 -6.821515643214E+00 -6.938809355811E+00 -7.052301413145E+00 -7.162006080273E+00
 -7.267935667494E+00 -7.370100558665E+00 -7.468509253903E+00 -7.563168427674E+00
 -7.654083003223E+00 -7.741256244300E+00 -7.824689865127E+00 -7.904384159436E+00
 -7.980338149416E+00 -8.052549755224E+00 -8.121015985660E+00 -8.185733150374E+00
 -8.246697093843E+00 -8.303903451045E+00 -8.357347924521E+00 -8.407026582142E+00
 -8.452936174539E+00 -8.495074470662E+00 -8.533440609489E+00 -8.568035465270E+00
 -8.598862023153E+00 -8.625925761285E+00 -8.649235034812E+00 -8.668801456407E+00
 -8.684640267130E+00 -8.696770690627E+00 -8.705216262764E+00 -8.710005127990E+00
 -8.711170292827E+00 -8.708749826124E+00 -8.702786994916E+00 -8.693330324108E+00
 -8.680433567619E+00 -8.664155578254E+00 -8.644560063369E+00 -8.621715213446E+00
 -8.595693191038E+00 -8.566569468284E+00 -8.534422002288E+00 -8.499330239347E+00
 -8.461373941158E+00 -8.420631829046E+00 -8.377180045780E+00 -8.331090438915E+00
 -8.282428674804E+00 -8.231252198496E+00 -8.177608061747E+00 -8.121530649280E+00