<?xml version="1.0" encoding="UTF-8" ?>
<psml version="1.1" energy_unit="hartree" length_unit="bohr"
 uuid="0485c060-539f-11e8-4484-0177fdff84ed"
 xmlns="http://esl.cecam.org/PSML/ns/1.1">
<provenance creator="ONCVPSP-3.3.0+psml-3.3.0-73 (fully-relativistic)"
 date="2018-05-09">
<annotation action="semilocal-pseudopotential-generation"
 action-cont="projectors-generation" />
<input-file name="oncvpsp-input">
<![CDATA[# atsym z nc nv iexc psfile
Sr 38 6 3 -116133 upf
# n l f
1 0 2.0
2 0 2.0
2 1 6.0
3 0 2.0
3 1 6.0
3 2 10.0
4 0 2.0
4 1 6.0
5 0 2.0
# lmax
2
# l rc ep ncon nbas qcut
0 1.65 0.0 4 8 6.7
1 1.3 0.0 4 8 8.3
2 1.5 0.0 4 8 7.8
# lloc lpopt rc5 dvloc0
4 5 1.3 0
# l nproj debl
0 2 1.0
1 2 3.0
2 2 3.5
# icmod fcfact rcfact
3 6.0 1.35
# epsh1 epsh2 depsh
-12.0 12.0 0.02
# rlmax drl
6.0 0.01
 0
]]>
</input-file>
</provenance>
<pseudo-atom-spec atomic-label="Sr" atomic-number="38" z-pseudo="10"
 flavor="Hamann&apos;s oncvpsp" relativity="dirac" spin-dft="no"
 core-corrections="yes">
<annotation pseudo-energy="-30.9041872140" />
<exchange-correlation>
<annotation oncvpsp-xc-code="-116133" oncvpsp-xc-type="libxc-interface" />
<libxc-info number-of-functionals="2">
<functional name="Perdew, Burke &amp; Ernzerhof SOL (GGA)" type="exchange"
 id="116" />
<functional name="Perdew, Burke &amp; Ernzerhof SOL (GGA)" type="correlation"
 id="133" />
</libxc-info>
</exchange-correlation>
<valence-configuration total-valence-charge="10">
<shell n="4" l="s" occupation="2" />
<shell n="4" l="p" occupation="6" />
<shell n="5" l="s" occupation="2" />
</valence-configuration>
</pseudo-atom-spec>
<grid npts="457">
<annotation type="sampled from oncvpsp log grid"
 recipe="r(i:1..N) = r1*exp(a*(i-1)) + r=0; resampled"
 recipe-cont="r1: scale; a: step" scale="0.131578947368E-04"
 step="0.119285708653E-01" delta="0.500000000000E-02" rmax="44.3233076602" />
<grid-data>
  0.000000000000E+00  5.001285356115E-03  1.010955111220E-02  1.516593874179E-02
  2.019303497754E-02  2.532977517910E-02  3.065628572608E-02  3.579861277629E-02
  4.081801070727E-02  4.598931705399E-02  5.120136896821E-02  5.632817400049E-02
  6.196832721796E-02  6.736485206945E-02  7.323133442633E-02  7.866472394973E-02
  8.450124311626E-02  8.969446845692E-02  9.520685584117E-02  1.010580201333E-01
  1.072687816757E-01  1.125111070896E-01  1.180096298362E-01  1.237768705182E-01
  1.298259616315E-01  1.361706774698E-01  1.428254654891E-01  1.480291296502E-01
  1.534223826959E-01  1.590121320562E-01  1.648055368242E-01  1.708100169258E-01
  1.770332626221E-01  1.834832443594E-01  1.901682229770E-01  1.970967602872E-01
  2.042777300411E-01  2.117203292939E-01  2.168321049244E-01  2.220672992657E-01
  2.274288921392E-01  2.329199353110E-01  2.385435542291E-01  2.443029498024E-01
  2.502014002225E-01  2.562422628294E-01  2.624289760232E-01  2.687650612203E-01
  2.752541248584E-01  2.818998604490E-01  2.887060506796E-01  2.956765695673E-01
  3.028153846629E-01  3.101265593102E-01  3.176142549582E-01  3.252827335299E-01
  3.331363598482E-01  3.411796041204E-01  3.494170444823E-01  3.578533696043E-01
  3.664933813600E-01  3.753419975595E-01  3.844042547486E-01  3.936853110753E-01
  4.031904492259E-01  4.129250794320E-01  4.228947425498E-01  4.279694794604E-01
  4.331051132139E-01  4.383023745725E-01  4.435620030674E-01  4.488847471042E-01
  4.542713640694E-01  4.597226204382E-01  4.652392918835E-01  4.708221633861E-01
  4.764720293467E-01  4.821896936989E-01  4.879759700233E-01  4.938316816636E-01
  4.997576618435E-01  5.057547537857E-01  5.118238108311E-01  5.179656965611E-01
  5.241812849198E-01  5.304714603388E-01  5.368371178629E-01  5.432791632772E-01
  5.497985132366E-01  5.563960953954E-01  5.630728485402E-01  5.698297227226E-01
  5.766676793953E-01  5.835876915481E-01  5.905907438466E-01  5.976778327728E-01
  6.048499667661E-01  6.121081663673E-01  6.194534643637E-01  6.268869059360E-01
  6.344095488073E-01  6.420224633929E-01  6.497267329537E-01  6.575234537491E-01
  6.654137351941E-01  6.733987000164E-01  6.814794844166E-01  6.896572382296E-01
  6.979331250884E-01  7.063083225894E-01  7.147840224605E-01  7.233614307300E-01
  7.320417678988E-01  7.408262691136E-01  7.497161843429E-01  7.587127785551E-01
  7.678173318977E-01  7.770311398805E-01  7.863555135591E-01  7.957917797218E-01
  8.053412810784E-01  8.150053764514E-01  8.247854409688E-01  8.346828662604E-01
  8.446990606555E-01  8.548354493834E-01  8.650934747760E-01  8.754745964733E-01
  8.859802916310E-01  8.966120551306E-01  9.073713997921E-01  9.182598565896E-01
  9.292789748687E-01  9.404303225671E-01  9.517154864379E-01  9.631360722752E-01
  9.746937051425E-01  9.863900296042E-01  9.982267099595E-01  1.010205430479E+00
  1.022327895645E+00  1.034595830392E+00  1.047010980357E+00  1.059575112121E+00
  1.072290013467E+00  1.085157493629E+00  1.098179383552E+00  1.111357536155E+00
  1.124693826589E+00  1.138190152508E+00  1.151848434338E+00  1.165670615550E+00
  1.179658662936E+00  1.193814566892E+00  1.208140341694E+00  1.222638025795E+00
  1.237309682104E+00  1.252157398289E+00  1.267183287069E+00  1.282389486514E+00
  1.297778160352E+00  1.313351498276E+00  1.329111716255E+00  1.345061056850E+00
  1.361201789533E+00  1.377536211007E+00  1.394066645539E+00  1.410795445286E+00
  1.427724990629E+00  1.444857690517E+00  1.462195982803E+00  1.479742334596E+00
  1.497499242612E+00  1.515469233523E+00  1.533654864325E+00  1.552058722697E+00
  1.570683427369E+00  1.589531628498E+00  1.608606008040E+00  1.627909280136E+00
  1.647444191498E+00  1.667213521796E+00  1.687220084058E+00  1.707466725066E+00
  1.727956325767E+00  1.748691801676E+00  1.769676103296E+00  1.790912216536E+00
  1.812403163134E+00  1.834152001092E+00  1.856161825105E+00  1.878435767006E+00
  1.900976996210E+00  1.923788720165E+00  1.946874184807E+00  1.970236675025E+00
  1.993879515125E+00  2.017806069306E+00  2.042019742138E+00  2.066523979044E+00
  2.091322266792E+00  2.116418133994E+00  2.141815151602E+00  2.167516933421E+00
  2.193527136622E+00  2.219849462261E+00  2.246487655808E+00  2.273445507678E+00
  2.300726853770E+00  2.328335576016E+00  2.356275602928E+00  2.384550910163E+00
  2.413165521085E+00  2.442123507338E+00  2.471428989426E+00  2.501086137299E+00
  2.531099170947E+00  2.561472360998E+00  2.592210029330E+00  2.623316549682E+00
  2.654796348278E+00  2.686653904457E+00  2.718893751311E+00  2.751520476327E+00
  2.784538722043E+00  2.817953186707E+00  2.851768624948E+00  2.885989848447E+00
  2.920621726628E+00  2.955669187348E+00  2.991137217596E+00  3.027030864207E+00
  3.063355234578E+00  3.100115497393E+00  3.137316883361E+00  3.174964685962E+00
  3.213064262193E+00  3.251621033339E+00  3.290640485740E+00  3.330128171568E+00
  3.370089709627E+00  3.410530786143E+00  3.451457155576E+00  3.492874641443E+00
  3.534789137141E+00  3.577206606786E+00  3.620133086068E+00  3.663574683101E+00
  3.707537579298E+00  3.752028030249E+00  3.797052366612E+00  3.842616995012E+00
  3.888728398952E+00  3.935393139739E+00  3.982617857416E+00  4.030409271705E+00
  4.078774182966E+00  4.127719473161E+00  4.177252106839E+00  4.227379132121E+00
  4.278107681707E+00  4.329444973887E+00  4.381398313574E+00  4.433975093337E+00
  4.487182794457E+00  4.541028987990E+00  4.595521335846E+00  4.650667591876E+00
  4.706475602979E+00  4.762953310215E+00  4.820108749937E+00  4.877950054936E+00
  4.936485455596E+00  4.995723281063E+00  5.055671960436E+00  5.116340023961E+00
  5.177736104248E+00  5.239868937499E+00  5.302747364749E+00  5.366380333126E+00
  5.430776897124E+00  5.495946219889E+00  5.561897574528E+00  5.628640345422E+00
  5.696184029567E+00  5.764538237922E+00  5.833712696777E+00  5.903717249139E+00
  5.974561856128E+00  6.046256598402E+00  6.118811677583E+00  6.192237417714E+00
  6.266544266726E+00  6.341742797927E+00  6.417843711502E+00  6.494857836040E+00
  6.572796130072E+00  6.651669683633E+00  6.731489719837E+00  6.812267596475E+00
  6.894014807633E+00  6.976742985324E+00  7.060463901148E+00  7.145189467962E+00
  7.230931741577E+00  7.317702922476E+00  7.405515357546E+00  7.494381541837E+00
  7.584314120339E+00  7.675325889783E+00  7.767429800460E+00  7.860638958066E+00
  7.954966625562E+00  8.050426225069E+00  8.147031339770E+00  8.244795715847E+00
  8.343733264437E+00  8.443858063611E+00  8.545184360374E+00  8.647726572698E+00
  8.751499291571E+00  8.856517283070E+00  8.962795490467E+00  9.070349036352E+00
  9.179193224788E+00  9.289343543486E+00  9.400815666008E+00  9.513625454000E+00
  9.627788959448E+00  9.743322426961E+00  9.860242296085E+00  9.978565203638E+00
  1.009830798608E+01  1.021948768191E+01  1.034212153410E+01  1.046622699251E+01
  1.059182171642E+01  1.071892357701E+01  1.084755065994E+01  1.097772126786E+01
  1.110945392307E+01  1.124276737015E+01  1.137768057859E+01  1.151421274553E+01
  1.165238329848E+01  1.179221189806E+01  1.193371844084E+01  1.207692306213E+01
  1.222184613887E+01  1.236850829254E+01  1.251693039205E+01  1.266713355675E+01
  1.281913915944E+01  1.297296882935E+01  1.312864445530E+01  1.328618818877E+01
  1.344562244703E+01  1.360696991639E+01  1.377025355539E+01  1.393549659806E+01
  1.410272255723E+01  1.427195522792E+01  1.444321869065E+01  1.461653731494E+01
  1.479193576272E+01  1.496943899187E+01  1.514907225978E+01  1.533086112689E+01
  1.551483146042E+01  1.570100943794E+01  1.588942155120E+01  1.608009460981E+01
  1.627305574513E+01  1.646833241407E+01  1.666595240304E+01  1.686594383188E+01
  1.706833515786E+01  1.727315517975E+01  1.748043304191E+01  1.769019823841E+01
  1.790248061727E+01  1.811731038468E+01  1.833471810930E+01  1.855473472661E+01
  1.877739154333E+01  1.900272024185E+01  1.923075288475E+01  1.946152191937E+01
  1.969506018240E+01  1.993140090459E+01  2.017057771544E+01  2.041262464803E+01
  2.065757614381E+01  2.090546705753E+01  2.115633266222E+01  2.141020865417E+01
  2.166713115802E+01  2.192713673191E+01  2.219026237270E+01  2.245654552117E+01
  2.272602406742E+01  2.299873635623E+01  2.327472119251E+01  2.355401784682E+01
  2.383666606098E+01  2.412270605371E+01  2.441217852636E+01  2.470512466867E+01
  2.500158616470E+01  2.530160519867E+01  2.560522446106E+01  2.591248715459E+01
  2.622343700044E+01  2.653811824445E+01  2.685657566338E+01  2.717885457134E+01
  2.750500082620E+01  2.783506083611E+01  2.816908156615E+01  2.850711054494E+01
  2.884919587148E+01  2.919538622194E+01  2.954573085660E+01  2.990027962688E+01
  3.025908298240E+01  3.062219197819E+01  3.098965828193E+01  3.136153418131E+01
  3.173787259149E+01  3.211872706259E+01  3.250415178734E+01  3.289420160879E+01
  3.328893202809E+01  3.368839921243E+01  3.409266000298E+01  3.450177192301E+01
  3.491579318609E+01  3.533478270432E+01  3.575880009677E+01  3.618790569794E+01
  3.662216056631E+01  3.706162649311E+01  3.750636601102E+01  3.795644240316E+01
  3.841191971199E+01  3.887286274854E+01  3.933933710152E+01  3.981140914674E+01
  4.028914605650E+01  4.077261580918E+01  4.126188719889E+01  4.175702984527E+01
  4.225811420342E+01  4.276521157386E+01  4.327839411275E+01  4.379773484210E+01
  4.432330766020E+01
</grid-data>
</grid>
<valence-charge total-charge="10" is-unscreening-charge="yes"
 rescaled-to-z-pseudo="no">
<radfunc>
<data npts="457">
  5.464115144590E-02  5.473265052869E-02  5.501517761479E-02  5.548348254648E-02
  5.613591503947E-02  5.699614746320E-02  5.809637971531E-02  5.936158146658E-02
  6.079098134089E-02  6.246700955680E-02  6.436796775017E-02  6.644836419268E-02
  6.898238902626E-02  7.165202298103E-02  7.483164362975E-02  7.803995923142E-02
  8.177511253103E-02  8.535592792752E-02  8.942836149551E-02  9.406466045830E-02
  9.934879651472E-02  1.041077589286E-01  1.094011443289E-01  1.152941558767E-01
  1.218608242420E-01  1.291853225358E-01  1.373634865117E-01  1.441224910535E-01
  1.514745112521E-01  1.594766590041E-01  1.681920720568E-01  1.776905826023E-01
  1.880494571614E-01  1.993542135845E-01  2.116995208935E-01  2.251901873853E-01
  2.399422418198E-01  2.560841115516E-01  2.676870484862E-01  2.800162906783E-01
  2.931207639761E-01  3.070527585240E-01  3.218681369824E-01  3.376265498368E-01
  3.543916568569E-01  3.722313534699E-01  3.912180004764E-01  4.114286551409E-01
  4.329453012282E-01  4.558550750315E-01  4.802504838308E-01  5.062296125265E-01
  5.338963134085E-01  5.633603731264E-01  5.947376499271E-01  6.281501730949E-01
  6.637261952795E-01  7.016001869978E-01  7.419127610658E-01  7.848105130267E-01
  8.304457618172E-01  8.789761729358E-01  9.305642442738E-01  9.853766325485E-01
  1.043583295976E+00  1.105356426473E+00  1.170869142353E+00  1.205081815327E+00
  1.240293910261E+00  1.276526574987E+00  1.313800663090E+00  1.352136656004E+00
  1.391554578951E+00  1.432073910468E+00  1.473713485209E+00  1.516491389764E+00
  1.560424851227E+00  1.605530118235E+00  1.651822334260E+00  1.699315402912E+00
  1.748021845066E+00  1.797952647633E+00  1.849117103855E+00  1.901522645015E+00
  1.955174663531E+00  2.010076327452E+00  2.066228386414E+00  2.123628969242E+00
  2.182273373398E+00  2.242153846647E+00  2.303259361345E+00  2.365575381920E+00
  2.429083626227E+00  2.493761821588E+00  2.559583456509E+00  2.626517529187E+00
  2.694528294139E+00  2.763575008446E+00  2.833611679289E+00  2.904586814704E+00
  2.976443179638E+00  3.049117559644E+00  3.122540534746E+00  3.196636266253E+00
  3.271322299455E+00  3.346509385411E+00  3.422101325165E+00  3.497994839916E+00
  3.574079470833E+00  3.650237512280E+00  3.726343982312E+00  3.802266634338E+00
  3.877866013799E+00  3.952995563644E+00  4.027501782247E+00  4.101224437160E+00
  4.173996837832E+00  4.245646170026E+00  4.315993894227E+00  4.384856209765E+00
  4.452044585796E+00  4.517366359540E+00  4.580625401433E+00  4.641622846019E+00
  4.700157886531E+00  4.756028630194E+00  4.809033010381E+00  4.858969750853E+00
  4.905639376423E+00  4.948845263614E+00  4.988394724127E+00  5.024100113369E+00
  5.055779955807E+00  5.083260078648E+00  5.106374745206E+00  5.124967779410E+00
  5.138893673208E+00  5.148018669067E+00  5.152221810449E+00  5.151395953943E+00
  5.145448737658E+00  5.134303501479E+00  5.117900155769E+00  5.096195996050E+00
  5.069166461951E+00  5.036805839291E+00  4.999127904406E+00  4.956166509708E+00
  4.907976108874E+00  4.854632219036E+00  4.796231815762E+00  4.732893654608E+00
  4.664758510553E+00  4.591989323859E+00  4.514771237974E+00  4.433311512192E+00
  4.347839289158E+00  4.258605195252E+00  4.165880750697E+00  4.069957566162E+00
  3.971146304077E+00  3.869775385951E+00  3.766188282101E+00  3.660735759091E+00
  3.553765377130E+00  3.445618268024E+00  3.336629153850E+00  3.227123993365E+00
  3.117418610885E+00  3.007817265644E+00  2.898611336211E+00  2.790078118247E+00
  2.682479747615E+00  2.576062260245E+00  2.471054799040E+00  2.367668976720E+00
  2.266098401856E+00  2.166518373322E+00  2.069085746211E+00  1.973938969758E+00
  1.881198295229E+00  1.790966149011E+00  1.703327844066E+00  1.618353153614E+00
  1.536098300419E+00  1.456606716920E+00  1.379909452574E+00  1.306025855536E+00
  1.234964214866E+00  1.166722418383E+00  1.101288621767E+00  1.038641924290E+00
  9.787530468841E-01  9.215850085103E-01  8.670937971289E-01  8.152290318011E-01
  7.659346128561E-01  7.191493571970E-01  6.748076163030E-01  6.328398745979E-01
  5.931733262251E-01  5.557324285066E-01  5.204394306139E-01  4.872148762227E-01
  4.559780791441E-01  4.266475711428E-01  3.991415213485E-01  3.733781268576E-01
  3.492759742997E-01  3.267543723079E-01  3.057336549930E-01  2.861354566652E-01
  2.678829581923E-01  2.509011055106E-01  2.351168009335E-01  2.204590680165E-01
  2.068591908551E-01  1.942508287967E-01  1.825701076614E-01  1.717556886755E-01
  1.617488164410E-01  1.524933473939E-01  1.439357603375E-01  1.360251507816E-01
  1.287132109511E-01  1.219541974418E-01  1.157048885616E-01  1.099245333806E-01
  1.045747943964E-01  9.961968548353E-02  9.502550645547E-02  9.076077514293E-02
  8.679615745758E-02  8.310439551923E-02  7.966023365209E-02  7.644034193774E-02
  7.342323705536E-02  7.058920031364E-02  6.792019302902E-02  6.539976966806E-02
  6.301298939522E-02  6.074632681569E-02  5.858758276643E-02  5.652579599215E-02
  5.455115646745E-02  5.265492101256E-02  5.082933172057E-02  4.906753758455E-02
  4.736351959479E-02  4.571201947506E-02  4.410847214437E-02  4.254894192640E-02
  4.103006248029E-02  3.954898039119E-02  3.810330233433E-02  3.669104570915E-02
  3.531059262930E-02  3.396064714708E-02  3.264019558703E-02  3.134846986144E-02
  3.008491363928E-02  2.884915124060E-02  2.764095912816E-02  2.646023986918E-02
  2.530699844026E-02  2.418132074937E-02  2.308335424903E-02  2.201329051549E-02
  2.097134966906E-02  1.995776651129E-02  1.897277825578E-02  1.801661373076E-02
  1.708948393417E-02  1.619157382518E-02  1.532303524151E-02  1.448398083847E-02
  1.367447895466E-02  1.289454932027E-02  1.214415953641E-02  1.142322226842E-02
  1.073159311071E-02  1.006906909525E-02  9.435387828454E-03  8.830227242956E-03
  8.253206015387E-03  7.703884542961E-03  7.181766596710E-03  6.686301580858E-03
  6.216887390514E-03  5.772873833336E-03  5.353566565362E-03  4.958231476218E-03
  4.586099446075E-03  4.236371386756E-03  3.908223473252E-03  3.600812469718E-03
  3.313281055753E-03  3.044763064047E-03  2.794388548544E-03  2.561288612558E-03
  2.344599937891E-03  2.143468968279E-03  1.957055712770E-03  1.784537146463E-03
  1.625110196922E-03  1.477994314368E-03  1.342433632165E-03  1.217698731229E-03
  1.103088027642E-03  9.979288071599E-04  9.015779334594E-04  8.134222590398E-04
  7.328787688035E-04  6.593944866328E-04  5.924461748762E-04  5.315398557027E-04
  4.762101818819E-04  4.260196828158E-04  3.805579096761E-04  3.394405013777E-04
  3.023081909128E-04  2.688257693522E-04  2.386810226370E-04  2.115836541866E-04
  1.872642043731E-04  1.654729760810E-04  1.459789739160E-04  1.285688631453E-04
  1.130459531631E-04  9.922920916577E-05  8.695229479238E-05  7.606264771796E-05
  6.642058956912E-05  5.789847104072E-05  5.037985271202E-05  4.375872176914E-05
  3.793874462049E-05  3.283255522459E-05  2.836107882208E-05  2.445289066185E-05
  2.104360922680E-05  1.807532338942E-05  1.549605285675E-05  1.325924119549E-05
  1.132328065881E-05  9.651067967950E-06  8.209590133241E-06  6.969539333116E-06
  5.904955807133E-06  4.992897661396E-06  4.213136434121E-06  3.547877226304E-06
  2.981502168751E-06  2.500335972769E-06  2.092432297953E-06  1.747379666780E-06
  1.456125661833E-06  1.210818157067E-06  1.004662358660E-06  8.317924630490E-07
  6.871567785873E-07  5.664152019336E-07  4.658479897084E-07  3.822748191073E-07
  3.129831870034E-07  2.556652546846E-07  2.083623038536E-07  1.694160281014E-07
  1.374259420410E-07  1.112122470567E-07  8.978354768861E-08  7.230886561208E-08
  5.809344866803E-08  4.655792020743E-08  3.722035896486E-08  2.968094166828E-08
  2.360881958097E-08  1.873093616342E-08  1.482252608453E-08  1.169906598530E-08
  9.209474814322E-09  7.230386343020E-09  5.661338776852E-09  4.420746362568E-09
  3.442535714488E-09  2.673345409343E-09  2.070201393879E-09  1.598593073061E-09
  1.230885754790E-09  9.450145681646E-10  7.234131868865E-10  5.521378091152E-10
  4.201529921145E-10  3.187512271520E-10  2.410826704807E-10  1.817753136325E-10
  1.366291654371E-10  1.023708052344E-10  7.645701962130E-11  5.691821409000E-11
  4.223394936300E-11  3.123433693060E-11  2.302218018405E-11  1.691170223298E-11
  1.238048983624E-11  9.031931442968E-12  6.565958937910E-12  4.756336784447E-12
  3.433095416419E-12  2.468991957226E-12  1.769112449379E-12  1.262915665430E-12
  8.981675163914E-13  6.363339580076E-13  4.490948170338E-13  3.157158173886E-13
  2.210751366101E-13  1.541872190621E-13  1.071028794066E-13  7.409302685043E-14
  5.104530470026E-14  3.501991787194E-14  2.392399041045E-14  1.627381336611E-14
  1.102199025983E-14  7.432299164013E-15  4.989488389404E-15  3.334536284645E-15
  2.218391094040E-15  1.469062798081E-15  9.683185411270E-16  6.352541850232E-16
  4.147665138460E-16  2.695019212137E-16  1.742596877252E-16  1.121200896104E-16
  7.177870542334E-17  4.572012554632E-17  2.897293055125E-17  1.826517946899E-17
  1.145446828617E-17  7.145259934433E-18  4.433283887266E-18  2.735706052689E-18
  1.678886454700E-18  1.024595642390E-18  6.217759186117E-19  3.751768870229E-19
  2.250760273220E-19  1.342403938462E-19  7.959163555111E-20  4.690842395345E-20
  2.747908692280E-20  0.000000000000E+00  0.000000000000E+00  0.000000000000E+00
  0.000000000000E+00
</data>
</radfunc>
</valence-charge>
<pseudocore-charge matching-radius="0.929278974869"
 number-of-continuous-derivatives="4">
<annotation model-charge-form="Teter function with specified parameters" />
<radfunc>
<data npts="290">
  3.126273837610E+01  3.126116861017E+01  3.125632474665E+01  3.124830637526E+01
  3.123715731302E+01  3.122249609246E+01  3.120380825887E+01  3.118240589799E+01
  3.115833717261E+01  3.113026378616E+01  3.109861322634E+01  3.106420275235E+01
  3.102260390799E+01  3.097914437372E+01  3.092785937990E+01  3.087662254244E+01
  3.081759940471E+01  3.076162947675E+01  3.069868265806E+01  3.062790549830E+01
  3.054834451828E+01  3.047766034418E+01  3.040007546364E+01  3.031493562986E+01
  3.022152865058E+01  3.011908012493E+01  3.000674906035E+01  2.991546949384E+01
  2.981770708714E+01  2.971302445861E+01  2.960095825986E+01  2.948101819381E+01
  2.935268609294E+01  2.921541507979E+01  2.906862883533E+01  2.891172100539E+01
  2.874405477949E+01  2.856496268194E+01  2.843887675828E+01  2.830718869104E+01
  2.816967824369E+01  2.802611940364E+01  2.787628054403E+01  2.771992462983E+01
  2.755680947305E+01  2.738668804185E+01  2.720930882907E+01  2.702441628577E+01
  2.683175132572E+01  2.663105190719E+01  2.642205369878E+01  2.620449083590E+01
  2.597809677548E+01  2.574260525591E+01  2.549775137016E+01  2.524327275950E+01
  2.497891093576E+01  2.470441273983E+01  2.441953194386E+01  2.412403100459E+01
  2.381768297469E+01  2.350027357829E+01  2.317160345627E+01  2.283149058583E+01
  2.247977287737E+01  2.211631095047E+01  2.174099108849E+01  2.154885667977E+01
  2.135372836939E+01  2.115560058295E+01  2.095446996739E+01  2.075033550293E+01
  2.054319861716E+01  2.033306330135E+01  2.011993622866E+01  1.990382687416E+01
  1.968474763651E+01  1.946271396093E+01  1.923774446340E+01  1.900986105580E+01
  1.877908907156E+01  1.854545739170E+01  1.830899857086E+01  1.806974896290E+01
  1.782774884575E+01  1.758304254506E+01  1.733567855619E+01  1.708570966409E+01
  1.683319306055E+01  1.657819045818E+01  1.632076820068E+01  1.606099736870E+01
  1.579895388067E+01  1.553471858782E+01  1.526837736290E+01  1.500002118158E+01
  1.472974619589E+01  1.445765379895E+01  1.418385067992E+01  1.390844886857E+01
  1.363156576833E+01  1.335332417705E+01  1.307385229443E+01  1.279328371524E+01
  1.251175740725E+01  1.222941767295E+01  1.194641409401E+01  1.166290145758E+01
  1.137903966326E+01  1.109499360996E+01  1.081093306155E+01  1.052703249040E+01
  1.024347089792E+01  9.960431611282E+00  9.678102055397E+00  9.396673499580E+00
  9.116340778098E+00  8.837301984107E+00  8.559758136475E+00  8.283912819130E+00
  8.009971792710E+00  7.738142578399E+00  7.468634014018E+00  7.201655782594E+00
  6.937417913812E+00  6.676130258943E+00  6.418001940082E+00  6.163240774711E+00
  5.912052676873E+00  5.664641036484E+00  5.421206078557E+00  5.181944204408E+00
  4.947047317177E+00  4.716702134280E+00  4.491089489735E+00  4.270383629537E+00
  4.054751503626E+00  3.844352058222E+00  3.639335532611E+00  3.439842764752E+00
  3.246004510305E+00  3.057940779945E+00  2.875760200033E+00  2.699559401909E+00
  2.529422445215E+00  2.365420280801E+00  2.207610258796E+00  2.056035687496E+00
  1.910725448651E+00  1.771693674665E+00  1.638939493043E+00  1.512446843217E+00
  1.392184370559E+00  1.278105402016E+00  1.170148007347E+00  1.068235149386E+00
  9.722749261444E-01  8.821609068432E-01  7.977725631774E-01  7.189757962524E-01
  6.456235586818E-01  5.775565703354E-01  5.146041251538E-01  4.565849853405E-01
  4.033083580906E-01  3.545749488524E-01  3.101780839483E-01  2.699048942296E-01
  2.335375503207E-01  2.008545389530E-01  1.716319689065E-01  1.456448942068E-01
  1.226686414775E-01  1.024801277586E-01  8.485915468352E-02  6.958966469098E-02
  5.646094494829E-02  4.526876489799E-02  3.581643382586E-02  2.791576559052E-02
  2.138793866139E-02  1.606424087791E-02  1.178668986288E-02  8.408521780188E-03
  5.794543100495E-03  3.821342197920E-03  2.377359909142E-03  1.362820599278E-03
  6.895277457874E-04  2.805305156898E-04  6.967021152271E-05  1.017733502222E-06
  2.821528375451E-05  1.137373585523E-04  2.280875744966E-04  3.489489982896E-04
  4.603063488814E-04  5.515586775445E-04  6.166408808759E-04  6.531716538194E-04
  6.616442511974E-04  6.446747214130E-04  6.063201478432E-04  5.514769430343E-04
  4.853664662906E-04  4.131122698422E-04  3.394102278852E-04  2.682897801133E-04
  2.029616443233E-04  1.457447370845E-04  9.806279585024E-05  6.049941559089E-05
  3.289897454885E-05  1.450027952156E-05  4.089735398479E-06  1.614295439569E-07
  1.072679561537E-06  5.185251620661E-06  1.098451525378E-05  1.717113425711E-05
  2.272235928574E-05  2.692243397821E-05  2.936390161749E-05  2.992356308328E-05
  2.871837014598E-05  2.604755267426E-05  2.232772405047E-05  1.802757925418E-05
  1.360813290678E-05  9.473321236995E-06  5.934330648148E-06  3.189362047252E-06
  1.318854907600E-06  2.946389302182E-07  1.996305512688E-10  2.583527722137E-07
  8.621947180775E-07  1.605254460302E-06  2.307287794346E-06  2.833043609941E-06
  3.102473578287E-06  3.092099078284E-06  2.828433187694E-06  2.375331965801E-06
  1.817799389159E-06  1.245021933406E-06  7.352464114174E-07  3.445820655174E-07
  1.010021152456E-07  3.877021729945E-09  0.000000000000E+00  0.000000000000E+00
  0.000000000000E+00  0.000000000000E+00  0.000000000000E+00  0.000000000000E+00
  0.000000000000E+00  0.000000000000E+00  0.000000000000E+00  0.000000000000E+00
  0.000000000000E+00  0.000000000000E+00  0.000000000000E+00  0.000000000000E+00
  0.000000000000E+00  0.000000000000E+00  0.000000000000E+00  0.000000000000E+00
  0.000000000000E+00  0.000000000000E+00  0.000000000000E+00  0.000000000000E+00
  0.000000000000E+00  0.000000000000E+00  0.000000000000E+00  0.000000000000E+00
  0.000000000000E+00  0.000000000000E+00  0.000000000000E+00  0.000000000000E+00
  0.000000000000E+00  0.000000000000E+00  0.000000000000E+00  0.000000000000E+00
  0.000000000000E+00  0.000000000000E+00  0.000000000000E+00  0.000000000000E+00
  0.000000000000E+00  0.000000000000E+00
</data>
</radfunc>
</pseudocore-charge>
<semilocal-potentials set="lj">
<slps n="4" l="s" j="0.5" rc="1.66721352180" eref="-1.50150086885">
<radfunc>
<data npts="290">
  3.683501527187E+01  3.681535116463E+01  3.675476325289E+01  3.665476643936E+01
  3.651634178332E+01  3.633539116670E+01  3.610650468354E+01  3.584676527548E+01
  3.555767633212E+01  3.522444594690E+01  3.485377045905E+01  3.445667790845E+01
  3.398465222635E+01  3.350064477684E+01  3.294113548314E+01  3.239435387738E+01
  3.177908273136E+01  3.120958127740E+01  3.058471137553E+01  2.990110403638E+01
  2.915564081617E+01  2.851287062515E+01  2.782755974131E+01  2.709877531115E+01
  2.632588293648E+01  2.550859460429E+01  2.464701529842E+01  2.397207304881E+01
  2.327291406304E+01  2.255009848208E+01  2.180435049944E+01  2.103656253032E+01
  2.024779725045E+01  1.943928728038E+01  1.861243233584E+01  1.776879372207E+01
  1.691008611643E+01  1.603816665881E+01  1.545052305106E+01  1.485850499748E+01
  1.426274963768E+01  1.366391163337E+01  1.306266051100E+01  1.245967788065E+01
  1.185565455753E+01  1.125128761439E+01  1.064727739438E+01  1.004432451458E+01
  9.443126890737E+00  8.844376813808E+00  8.248758107658E+00  7.656943396641E+00
  7.069591509737E+00  6.487345046035E+00  5.910828123840E+00  5.340644332930E+00
  4.777374906463E+00  4.221577125821E+00  3.673782968294E+00  3.134498004150E+00
  2.604200546144E+00  2.083341051205E+00  1.572341770733E+00  1.071596642849E+00
  5.814714169785E-01  1.023039984356E-01 -3.655950018127E-01 -5.952290644193E-01
 -8.219415292830E-01 -1.045700890195E+00 -1.266477179089E+00 -1.484241929938E+00
 -1.698968140865E+00 -1.910630234653E+00 -2.119204017847E+00 -2.324666638636E+00
 -2.526996543734E+00 -2.726173434429E+00 -2.922178222033E+00 -3.114992982921E+00
 -3.304600913376E+00 -3.490986284443E+00 -3.674134396994E+00 -3.854031537229E+00
 -4.030664932809E+00 -4.204022709828E+00 -4.374093850828E+00 -4.540868154068E+00
 -4.704336194228E+00 -4.864489284753E+00 -5.021319442018E+00 -5.174819351491E+00
 -5.324982336063E+00 -5.471802326709E+00 -5.615273835613E+00 -5.755391931898E+00
 -5.892152220075E+00 -6.025550821290E+00 -6.155584357466E+00 -6.282249938362E+00
 -6.405545151592E+00 -6.525468055576E+00 -6.642017175402E+00 -6.755191501510E+00
 -6.864990491081E+00 -6.971414071988E+00 -7.074462649113E+00 -7.174137112776E+00
 -7.270438849003E+00 -7.363369751304E+00 -7.452932233556E+00 -7.539129243597E+00
 -7.621964277027E+00 -7.701441390701E+00 -7.777565215353E+00 -7.850340966721E+00
 -7.919774454539E+00 -7.985872088688E+00 -8.048640881786E+00 -8.108088447476E+00
 -8.164222993613E+00 -8.217053309601E+00 -8.266588747056E+00 -8.312839193047E+00
 -8.355815035156E+00 -8.395527117652E+00 -8.431986688161E+00 -8.465205334298E+00
 -8.495194909851E+00 -8.521967450324E+00 -8.545535077802E+00 -8.565909895426E+00
 -8.583103872055E+00 -8.597128718104E+00 -8.607995753964E+00 -8.615715772976E+00
 -8.620298901463E+00 -8.621754459002E+00 -8.620090822811E+00 -8.615315300886E+00
 -8.607434019305E+00 -8.596451829965E+00 -8.582372245805E+00 -8.565197411428E+00
 -8.544928117787E+00 -8.521563870345E+00 -8.495103020746E+00 -8.465542972575E+00
 -8.432880472158E+00 -8.397111995608E+00 -8.358234243321E+00 -8.316244752984E+00
 -8.271142641751E+00 -8.222929487594E+00 -8.171610358954E+00 -8.117195000651E+00